  37  37   0   0
  0.4206308E+02  0.8803480E-09  0.8803480E-09  0.2318801E-08  0.5000000E-15
   1.0000000000000000E-004
  CAR 
 unknown system                          
      8.14014326    -18.39143720  301      0.43062983      1.00000000
    -18.391  0.0000E+00  0.0000E+00
    -18.303  0.0000E+00  0.0000E+00
    -18.215  0.0000E+00  0.0000E+00
    -18.126  0.0000E+00  0.0000E+00
    -18.038 -0.1530E-29 -0.1353E-30
    -17.949 -0.2213E-23 -0.1957E-24
    -17.861 -0.6604E-18 -0.5841E-19
    -17.772 -0.3928E-13 -0.3474E-14
    -17.684 -0.4887E-09 -0.4323E-10
    -17.595 -0.1219E-05 -0.1079E-06
    -17.507 -0.5949E-03 -0.5272E-04
    -17.419 -0.5292E-01 -0.4732E-02
    -17.330 -0.6223E+00 -0.5976E-01
    -17.242  0.2866E+01  0.1937E+00
    -17.153  0.1492E+02  0.1513E+01
    -17.065  0.6310E+01  0.2071E+01
    -16.976 -0.6664E+00  0.2012E+01
    -16.888 -0.1316E+00  0.2000E+01
    -16.800 -0.2438E-02  0.2000E+01
    -16.711 -0.7897E-05  0.2000E+01
    -16.623 -0.4943E-08  0.2000E+01
    -16.534 -0.6185E-12  0.2000E+01
    -16.446  0.0000E+00  0.2000E+01
    -16.357  0.0000E+00  0.2000E+01
    -16.269  0.0000E+00  0.2000E+01
    -16.180  0.0000E+00  0.2000E+01
    -16.092  0.0000E+00  0.2000E+01
    -16.004  0.0000E+00  0.2000E+01
    -15.915  0.0000E+00  0.2000E+01
    -15.827  0.0000E+00  0.2000E+01
    -15.738  0.0000E+00  0.2000E+01
    -15.650  0.0000E+00  0.2000E+01
    -15.561  0.0000E+00  0.2000E+01
    -15.473  0.0000E+00  0.2000E+01
    -15.385  0.0000E+00  0.2000E+01
    -15.296  0.0000E+00  0.2000E+01
    -15.208  0.0000E+00  0.2000E+01
    -15.119  0.0000E+00  0.2000E+01
    -15.031  0.0000E+00  0.2000E+01
    -14.942  0.0000E+00  0.2000E+01
    -14.854  0.0000E+00  0.2000E+01
    -14.765  0.0000E+00  0.2000E+01
    -14.677  0.0000E+00  0.2000E+01
    -14.589  0.0000E+00  0.2000E+01
    -14.500  0.0000E+00  0.2000E+01
    -14.412  0.0000E+00  0.2000E+01
    -14.323  0.0000E+00  0.2000E+01
    -14.235  0.0000E+00  0.2000E+01
    -14.146  0.0000E+00  0.2000E+01
    -14.058  0.0000E+00  0.2000E+01
    -13.970  0.0000E+00  0.2000E+01
    -13.881  0.0000E+00  0.2000E+01
    -13.793  0.0000E+00  0.2000E+01
    -13.704  0.0000E+00  0.2000E+01
    -13.616  0.0000E+00  0.2000E+01
    -13.527  0.0000E+00  0.2000E+01
    -13.439  0.0000E+00  0.2000E+01
    -13.350  0.0000E+00  0.2000E+01
    -13.262  0.0000E+00  0.2000E+01
    -13.174  0.0000E+00  0.2000E+01
    -13.085  0.0000E+00  0.2000E+01
    -12.997  0.0000E+00  0.2000E+01
    -12.908  0.0000E+00  0.2000E+01
    -12.820  0.0000E+00  0.2000E+01
    -12.731  0.0000E+00  0.2000E+01
    -12.643  0.0000E+00  0.2000E+01
    -12.554  0.0000E+00  0.2000E+01
    -12.466  0.0000E+00  0.2000E+01
    -12.378  0.0000E+00  0.2000E+01
    -12.289  0.0000E+00  0.2000E+01
    -12.201  0.0000E+00  0.2000E+01
    -12.112  0.0000E+00  0.2000E+01
    -12.024  0.0000E+00  0.2000E+01
    -11.935  0.0000E+00  0.2000E+01
    -11.847  0.0000E+00  0.2000E+01
    -11.759  0.0000E+00  0.2000E+01
    -11.670  0.0000E+00  0.2000E+01
    -11.582  0.0000E+00  0.2000E+01
    -11.493  0.0000E+00  0.2000E+01
    -11.405  0.0000E+00  0.2000E+01
    -11.316  0.0000E+00  0.2000E+01
    -11.228  0.0000E+00  0.2000E+01
    -11.139  0.0000E+00  0.2000E+01
    -11.051  0.0000E+00  0.2000E+01
    -10.963  0.0000E+00  0.2000E+01
    -10.874  0.0000E+00  0.2000E+01
    -10.786  0.0000E+00  0.2000E+01
    -10.697  0.0000E+00  0.2000E+01
    -10.609  0.0000E+00  0.2000E+01
    -10.520  0.0000E+00  0.2000E+01
    -10.432  0.0000E+00  0.2000E+01
    -10.344  0.0000E+00  0.2000E+01
    -10.255  0.0000E+00  0.2000E+01
    -10.167  0.0000E+00  0.2000E+01
    -10.078  0.0000E+00  0.2000E+01
     -9.990  0.0000E+00  0.2000E+01
     -9.901  0.0000E+00  0.2000E+01
     -9.813  0.0000E+00  0.2000E+01
     -9.724  0.0000E+00  0.2000E+01
     -9.636  0.0000E+00  0.2000E+01
     -9.548  0.0000E+00  0.2000E+01
     -9.459  0.0000E+00  0.2000E+01
     -9.371  0.0000E+00  0.2000E+01
     -9.282  0.0000E+00  0.2000E+01
     -9.194  0.0000E+00  0.2000E+01
     -9.105 -0.1928E-32  0.2000E+01
     -9.017 -0.5167E-26  0.2000E+01
     -8.929 -0.2862E-20  0.2000E+01
     -8.840 -0.3265E-15  0.2000E+01
     -8.752 -0.7371E-11  0.2000E+01
     -8.663 -0.3454E-07  0.2000E+01
     -8.575 -0.3208E-04  0.2000E+01
     -8.486 -0.5640E-02  0.1999E+01
     -8.398 -0.1599E+00  0.1985E+01
     -8.309  0.1708E-01  0.1987E+01
     -8.221  0.5555E+01  0.2478E+01
     -8.133  0.5940E+01  0.3003E+01
     -8.044  0.8602E-01  0.3011E+01
     -7.956 -0.5185E+00  0.2965E+01
     -7.867  0.3044E+01  0.3234E+01
     -7.779  0.7489E+01  0.3897E+01
     -7.690  0.1511E+01  0.4030E+01
     -7.602 -0.3157E+00  0.4002E+01
     -7.513 -0.2795E-01  0.4000E+01
     -7.425 -0.9879E-02  0.3999E+01
     -7.337 -0.2471E+00  0.3977E+01
     -7.248 -0.2626E+00  0.3954E+01
     -7.160  0.8514E+01  0.4707E+01
     -7.071  0.1933E+02  0.6416E+01
     -6.983  0.7060E+01  0.7041E+01
     -6.894  0.2817E+01  0.7290E+01
     -6.806  0.7304E+01  0.7936E+01
     -6.718  0.7216E+01  0.8574E+01
     -6.629  0.5010E+01  0.9017E+01
     -6.541 -0.5534E+00  0.8968E+01
     -6.452  0.1092E+01  0.9065E+01
     -6.364  0.1329E+02  0.1024E+02
     -6.275  0.8572E+01  0.1100E+02
     -6.187  0.8403E+01  0.1174E+02
     -6.098  0.2723E+02  0.1415E+02
     -6.010  0.3385E+02  0.1714E+02
     -5.922  0.3389E+02  0.2014E+02
     -5.833  0.2649E+02  0.2248E+02
     -5.745  0.5428E+02  0.2728E+02
     -5.656  0.4321E+02  0.3111E+02
     -5.568  0.2821E+02  0.3360E+02
     -5.479  0.4219E+02  0.3733E+02
     -5.391  0.5606E+02  0.4229E+02
     -5.303  0.7858E+02  0.4924E+02
     -5.214  0.9898E+02  0.5799E+02
     -5.126  0.6409E+02  0.6366E+02
     -5.037  0.4921E+02  0.6801E+02
     -4.949  0.5505E+02  0.7288E+02
     -4.860  0.4930E+02  0.7724E+02
     -4.772  0.3560E+02  0.8039E+02
     -4.683  0.4872E+02  0.8470E+02
     -4.595  0.7812E+02  0.9161E+02
     -4.507  0.6283E+02  0.9716E+02
     -4.418  0.5721E+02  0.1022E+03
     -4.330  0.8066E+02  0.1094E+03
     -4.241  0.7428E+02  0.1159E+03
     -4.153  0.6735E+02  0.1219E+03
     -4.064  0.7767E+02  0.1288E+03
     -3.976  0.7063E+02  0.1350E+03
     -3.888  0.7123E+02  0.1413E+03
     -3.799  0.9058E+02  0.1493E+03
     -3.711  0.8910E+02  0.1572E+03
     -3.622  0.1015E+03  0.1662E+03
     -3.534  0.1074E+03  0.1757E+03
     -3.445  0.1200E+03  0.1863E+03
     -3.357  0.1143E+03  0.1964E+03
     -3.268  0.8315E+02  0.2037E+03
     -3.180  0.8302E+02  0.2111E+03
     -3.092  0.1003E+03  0.2199E+03
     -3.003  0.6996E+02  0.2261E+03
     -2.915  0.6567E+02  0.2319E+03
     -2.826  0.8627E+02  0.2396E+03
     -2.738  0.9162E+02  0.2477E+03
     -2.649  0.6972E+02  0.2538E+03
     -2.561  0.7299E+02  0.2603E+03
     -2.472  0.7793E+02  0.2672E+03
     -2.384  0.7283E+02  0.2736E+03
     -2.296  0.7792E+02  0.2805E+03
     -2.207  0.8651E+02  0.2882E+03
     -2.119  0.9372E+02  0.2964E+03
     -2.030  0.9149E+02  0.3045E+03
     -1.942  0.9466E+02  0.3129E+03
     -1.853  0.7222E+02  0.3193E+03
     -1.765  0.5607E+02  0.3243E+03
     -1.677  0.9174E+02  0.3324E+03
     -1.588  0.1345E+03  0.3443E+03
     -1.500  0.1357E+03  0.3563E+03
     -1.411  0.9576E+02  0.3647E+03
     -1.323  0.8038E+02  0.3718E+03
     -1.234  0.4781E+02  0.3761E+03
     -1.146  0.2608E+02  0.3784E+03
     -1.057  0.1457E+02  0.3797E+03
     -0.969  0.1632E+02  0.3811E+03
     -0.881  0.3302E+02  0.3840E+03
     -0.792  0.2422E+02  0.3862E+03
     -0.704  0.2129E+02  0.3881E+03
     -0.615  0.1146E+02  0.3891E+03
     -0.527  0.1427E+02  0.3903E+03
     -0.438  0.2670E+02  0.3927E+03
     -0.350  0.1401E+02  0.3939E+03
     -0.262  0.3203E+01  0.3942E+03
     -0.173  0.1337E+02  0.3954E+03
     -0.085  0.6797E+01  0.3960E+03
      0.004  0.7821E+01  0.3967E+03
      0.092  0.1959E+02  0.3984E+03
      0.181  0.6879E+01  0.3990E+03
      0.269  0.9374E+00  0.3991E+03
      0.358  0.1241E+02  0.4002E+03
      0.446  0.2473E+02  0.4024E+03
      0.534  0.1695E+02  0.4039E+03
      0.623  0.1160E+01  0.4040E+03
      0.711  0.3243E+01  0.4043E+03
      0.800  0.1700E+02  0.4058E+03
      0.888  0.1675E+02  0.4073E+03
      0.977  0.1889E+02  0.4089E+03
      1.065  0.1748E+02  0.4105E+03
      1.153  0.5703E+01  0.4110E+03
      1.242  0.8244E+01  0.4117E+03
      1.330  0.1420E+02  0.4130E+03
      1.419  0.1170E+02  0.4140E+03
      1.507  0.1083E+02  0.4150E+03
      1.596  0.7183E+01  0.4156E+03
      1.684  0.4609E+01  0.4160E+03
      1.773  0.6319E+01  0.4166E+03
      1.861  0.1621E+02  0.4180E+03
      1.949  0.1767E+02  0.4196E+03
      2.038  0.5097E+01  0.4200E+03
      2.126  0.1259E+02  0.4211E+03
      2.215  0.2413E+02  0.4233E+03
      2.303  0.9405E+01  0.4241E+03
      2.392  0.9459E+01  0.4249E+03
      2.480  0.1096E+02  0.4259E+03
      2.569  0.7908E+00  0.4260E+03
      2.657  0.5648E+01  0.4265E+03
      2.745  0.1526E+02  0.4278E+03
      2.834  0.2105E+02  0.4297E+03
      2.922  0.2996E+02  0.4323E+03
      3.011  0.1577E+02  0.4337E+03
      3.099  0.1276E+02  0.4349E+03
      3.188  0.1956E+01  0.4350E+03
      3.276 -0.1765E+00  0.4350E+03
      3.364  0.7511E+01  0.4357E+03
      3.453  0.1411E+02  0.4369E+03
      3.541  0.1555E+02  0.4383E+03
      3.630  0.1667E+02  0.4398E+03
      3.718  0.1205E+02  0.4408E+03
      3.807  0.1685E+01  0.4410E+03
      3.895  0.2702E+01  0.4412E+03
      3.984  0.1481E+02  0.4425E+03
      4.072  0.2615E+02  0.4449E+03
      4.160  0.2039E+02  0.4467E+03
      4.249  0.6638E+01  0.4472E+03
      4.337  0.1219E+02  0.4483E+03
      4.426  0.7705E+01  0.4490E+03
      4.514  0.1184E+02  0.4500E+03
      4.603  0.1766E+02  0.4516E+03
      4.691  0.6054E+01  0.4521E+03
      4.779  0.1412E+02  0.4534E+03
      4.868  0.2190E+02  0.4553E+03
      4.956  0.7736E+01  0.4560E+03
      5.045  0.1874E+01  0.4562E+03
      5.133  0.1026E+02  0.4571E+03
      5.222  0.1635E+02  0.4585E+03
      5.310  0.1503E+02  0.4599E+03
      5.399  0.1614E+02  0.4613E+03
      5.487  0.1572E+02  0.4627E+03
      5.575  0.1156E+02  0.4637E+03
      5.664  0.1572E+02  0.4651E+03
      5.752  0.1844E+02  0.4667E+03
      5.841  0.2375E+02  0.4688E+03
      5.929  0.3434E+02  0.4719E+03
      6.018  0.2562E+02  0.4741E+03
      6.106  0.2390E+02  0.4762E+03
      6.194  0.1714E+02  0.4778E+03
      6.283  0.4839E+01  0.4782E+03
      6.371  0.4313E+01  0.4786E+03
      6.460  0.2410E+01  0.4788E+03
      6.548  0.1936E+01  0.4790E+03
      6.637  0.1084E+02  0.4799E+03
      6.725  0.2013E+02  0.4817E+03
      6.814  0.1232E+02  0.4828E+03
      6.902  0.8030E+01  0.4835E+03
      6.990  0.5445E+01  0.4840E+03
      7.079  0.5643E+00  0.4840E+03
      7.167 -0.2149E+00  0.4840E+03
      7.256 -0.1496E-01  0.4840E+03
      7.344 -0.1538E-03  0.4840E+03
      7.433 -0.2955E-06  0.4840E+03
      7.521 -0.1124E-09  0.4840E+03
      7.610 -0.8369E-14  0.4840E+03
      7.698  0.0000E+00  0.4840E+03
      7.786  0.0000E+00  0.4840E+03
      7.875  0.0000E+00  0.4840E+03
      7.963  0.0000E+00  0.4840E+03
      8.052  0.0000E+00  0.4840E+03
      8.140  0.0000E+00  0.4840E+03
