       N       E                     dE             d eps       ncg     rms          rms(c)
DAV:   1     0.247286716289E+04    0.24729E+04   -0.15921E+05  2904   0.117E+03
DAV:   2     0.359020187480E+02   -0.24370E+04   -0.22504E+04  3336   0.271E+02
DAV:   3    -0.122336418500E+03   -0.15824E+03   -0.15070E+03  3304   0.622E+01
DAV:   4    -0.126672810869E+03   -0.43364E+01   -0.42980E+01  3248   0.103E+01
DAV:   5    -0.126828601783E+03   -0.15579E+00   -0.15536E+00  3464   0.194E+00    0.444E+01
RMM:   6    -0.120748442453E+03    0.60802E+01   -0.30238E+01  3129   0.116E+01    0.367E+01
RMM:   7    -0.134600830363E+03   -0.13852E+02   -0.35616E+01  3342   0.777E+00    0.321E+01
RMM:   8    -0.134097123671E+03    0.50371E+00   -0.31900E+01  3411   0.824E+00    0.251E+01
RMM:   9    -0.118044349391E+03    0.16053E+02   -0.11894E+01  3272   0.567E+00    0.113E+01
RMM:  10    -0.115185027002E+03    0.28593E+01   -0.60468E+00  3298   0.439E+00    0.410E+00
RMM:  11    -0.115236359415E+03   -0.51332E-01   -0.12044E+00  3263   0.165E+00    0.541E+00
RMM:  12    -0.115122964106E+03    0.11340E+00   -0.65095E-01  3241   0.131E+00    0.207E+00
RMM:  13    -0.115056422582E+03    0.66542E-01   -0.48137E-02  3163   0.450E-01    0.168E+00
RMM:  14    -0.114992600204E+03    0.63822E-01   -0.32554E-02  3250   0.319E-01    0.717E-01
RMM:  15    -0.114985666013E+03    0.69342E-02   -0.17788E-02  3357   0.183E-01    0.184E-01
RMM:  16    -0.114987812141E+03   -0.21461E-02   -0.21783E-03  3213   0.761E-02    0.224E-01
RMM:  17    -0.114988240810E+03   -0.42867E-03   -0.19157E-03  3262   0.596E-02    0.587E-02
RMM:  18    -0.114988462215E+03   -0.22141E-03   -0.29853E-04  2229   0.242E-02    0.476E-02
RMM:  19    -0.114988992818E+03   -0.53060E-03   -0.17546E-04  2060   0.183E-02    0.243E-02
RMM:  20    -0.114989174821E+03   -0.18200E-03   -0.61804E-05  1901   0.109E-02    0.174E-02
RMM:  21    -0.114989314922E+03   -0.14010E-03   -0.45477E-05  1787   0.877E-03    0.276E-02
RMM:  22    -0.114989359133E+03   -0.44211E-04   -0.11380E-05  1087   0.529E-03
   1 F= -.11498936E+03 E0= -.11498008E+03  d E =-.278400E-01
