 vasp.6.4.3 19Mar24 (build Oct  2 2024 09:01:45) complex                         
 executed on             LinuxGNU date 2025.02.17  17:20:18
 running   48 mpi-ranks, with    1 threads/rank, on    1 nodes
 distrk:  each k-point on   48 cores,    1 groups
 distr:  one band on NCORE=  24 cores,    2 groups


--------------------------------------------------------------------------------------------------------


 INCAR:
   ENCUT = 400.000000
   SIGMA = 0.100000
   EDIFF = 1.00e-04
   EDIFFG = -3.00e-02
   ALGO = Fast
   GGA = PE
   PREC = Accurate
   IBRION = -1
   ICHARG = 2
   IDIPOL = 3
   ISMEAR = 1
   ISYM = 0
   NPAR = 2
   LCHARG = .FALSE.
   LDIPOL = .TRUE.
   LWAVE = .FALSE.
   LREAL = Auto

 POTCAR:    PAW_PBE Au 04Oct2007                  
 POTCAR:    PAW_PBE O 08Apr2002                   
 POTCAR:    PAW_PBE Au 04Oct2007                  
   SHA256 =  d0044ae04e2bdce24051b198fc5c053d722a5bc6fe3c3b100514a13fc5d2db88 Au/POTCAR             
   COPYR  = (c) Copyright 04Oct2007 Georg Kresse                                                    
   COPYR  = This file is part of the software VASP. Any use, copying, and all other rights are regul
   COPYR  = If you do not have a valid VASP license, you may not use, copy or distribute this file. 
   VRHFIN =Au: s1d10                                                                                
   LEXCH  = PE                                                                                      
   EATOM  =   926.0867 eV,   68.0654 Ry                                                             
                                                                                                    
   TITEL  = PAW_PBE Au 04Oct2007                                                                    
   LULTRA =        F    use ultrasoft PP ?                                                          
   IUNSCR =        1    unscreen: 0-lin 1-nonlin 2-no                                               
   RPACOR =    2.330    partial core radius                                                         
   POMASS =  196.966; ZVAL   =   11.000    mass and valenz                                          
   RCORE  =    2.500    outmost cutoff radius                                                       
   RWIGS  =    2.840; RWIGS  =    1.503    wigner-seitz radius (au A)                               
   ENMAX  =  229.943; ENMIN  =  172.457 eV                                                          
   ICORE  =        3    local potential                                                             
   LCOR   =        T    correct aug charges                                                         
   LPAW   =        T    paw PP                                                                      
   EAUG   =  356.670                                                                                
   DEXC   =    0.000                                                                                
   RMAX   =    2.562    core radius for proj-oper                                                   
   RAUG   =    1.300    factor for augmentation sphere                                              
   RDEP   =    2.598    radius for radial grids                                                     
   RDEPT  =    2.193    core radius for aug-charge                                                  
                                                                                                    
   Atomic configuration                                                                             
   16 entries                                                                                       
     n  l   j            E        occ.                                                              
     1  0  0.50    -80748.5001   2.0000                                                             
     2  0  0.50    -14244.7466   2.0000                                                             
     2  1  1.50    -12310.9591   6.0000                                                             
     3  0  0.50     -3362.1768   2.0000                                                             
     3  1  1.50     -2801.5463   6.0000                                                             
     3  2  2.50     -2203.8206  10.0000                                                             
     4  0  0.50      -729.8168   2.0000                                                             
     4  1  1.50      -546.0527   6.0000                                                             
     4  2  2.50      -325.7302  10.0000                                                             
     4  3  3.50       -81.1472  14.0000                                                             
     5  0  0.50      -108.3201   2.0000                                                             
     5  1  1.50       -59.7479   6.0000                                                             
     5  2  2.50        -6.8783  10.0000                                                             
     6  0  0.50        -5.7602   1.0000                                                             
     6  1  1.50        -6.8029   0.0000                                                             
     5  3  2.50        -1.3606   0.0000                                                             
   Description                                                                                      
     l       E           TYP  RCUT    TYP  RCUT                                                     
     2     -6.8782861     23  2.500                                                                 
     2     -8.2388687     23  2.500                                                                 
     0     -5.7601759     23  2.500                                                                 
     0     -0.8493231     23  2.500                                                                 
     1     -2.7211652     23  2.500                                                                 
     1     27.2116520     23  2.500                                                                 
     3     -1.3605826     23  2.500                                                                 
  local pseudopotential read in
  partial core-charges read in
  partial kinetic energy density read in
  atomic valenz-charges read in
  non local Contribution for L=           2  read in
    real space projection operators read in
  non local Contribution for L=           2  read in
    real space projection operators read in
  non local Contribution for L=           0  read in
    real space projection operators read in
  non local Contribution for L=           0  read in
    real space projection operators read in
  non local Contribution for L=           1  read in
    real space projection operators read in
  non local Contribution for L=           1  read in
    real space projection operators read in
    PAW grid and wavefunctions read in

   number of l-projection  operators is LMAX  =           6
   number of lm-projection operators is LMMAX =          18

 POTCAR:    PAW_PBE O 08Apr2002                   
   SHA256 =  818f92134a0a090dccd8ba1447fa70422a3b330e708bb4f08108d8ae51209ddf O/POTCAR              
   COPYR  = (c) Copyright 08Apr2002 Georg Kresse                                                    
   COPYR  = This file is part of the software VASP. Any use, copying, and all other rights are regul
   COPYR  = If you do not have a valid VASP license, you may not use, copy or distribute this file. 
   VRHFIN =O: s2p4                                                                                  
   LEXCH  = PE                                                                                      
   EATOM  =   432.3788 eV,   31.7789 Ry                                                             
                                                                                                    
   TITEL  = PAW_PBE O 08Apr2002                                                                     
   LULTRA =        F    use ultrasoft PP ?                                                          
   IUNSCR =        1    unscreen: 0-lin 1-nonlin 2-no                                               
   RPACOR =    1.200    partial core radius                                                         
   POMASS =   16.000; ZVAL   =    6.000    mass and valenz                                          
   RCORE  =    1.520    outmost cutoff radius                                                       
   RWIGS  =    1.550; RWIGS  =    0.820    wigner-seitz radius (au A)                               
   ENMAX  =  400.000; ENMIN  =  300.000 eV                                                          
   ICORE  =        2    local potential                                                             
   LCOR   =        T    correct aug charges                                                         
   LPAW   =        T    paw PP                                                                      
   EAUG   =  605.392                                                                                
   DEXC   =    0.000                                                                                
   RMAX   =    1.553    core radius for proj-oper                                                   
   RAUG   =    1.300    factor for augmentation sphere                                              
   RDEP   =    1.550    radius for radial grids                                                     
   RDEPT  =    1.329    core radius for aug-charge                                                  
                                                                                                    
   Atomic configuration                                                                             
    4 entries                                                                                       
     n  l   j            E        occ.                                                              
     1  0  0.50      -514.6923   2.0000                                                             
     2  0  0.50       -23.9615   2.0000                                                             
     2  1  0.50        -9.0305   4.0000                                                             
     3  2  1.50        -9.5241   0.0000                                                             
   Description                                                                                      
     l       E           TYP  RCUT    TYP  RCUT                                                     
     0    -23.9615318     23  1.200                                                                 
     0     -9.5240782     23  1.200                                                                 
     1     -9.0304911     23  1.520                                                                 
     1      8.1634956     23  1.520                                                                 
     2     -9.5240782      7  1.500                                                                 
  local pseudopotential read in
  partial core-charges read in
  partial kinetic energy density read in
  kinetic energy density of atom read in
  atomic valenz-charges read in
  non local Contribution for L=           0  read in
    real space projection operators read in
  non local Contribution for L=           0  read in
    real space projection operators read in
  non local Contribution for L=           1  read in
    real space projection operators read in
  non local Contribution for L=           1  read in
    real space projection operators read in
    PAW grid and wavefunctions read in

   number of l-projection  operators is LMAX  =           4
   number of lm-projection operators is LMMAX =           8

 Optimization of the real space projectors (new method)

 maximal supplied QI-value         = 15.12
 optimisation between [QCUT,QGAM] = [ 10.13, 20.41] = [ 28.73,116.64] Ry 
 Optimized for a Real-space Cutoff    1.55 Angstroem

   l    n(q)    QCUT    max X(q) W(low)/X(q) W(high)/X(q)  e(spline) 
   2      9    10.129    60.898    0.14E-03    0.27E-03    0.16E-06
   2      9    10.129    58.894    0.14E-03    0.27E-03    0.17E-06
   0      9    10.129   109.617    0.51E-04    0.23E-04    0.60E-07
   0      9    10.129    75.026    0.50E-04    0.22E-04    0.58E-07
   1      9    10.129    16.344    0.46E-04    0.82E-04    0.13E-06
   1      9    10.129    10.160    0.41E-04    0.64E-04    0.11E-06
 Optimization of the real space projectors (new method)

 maximal supplied QI-value         = 24.76
 optimisation between [QCUT,QGAM] = [ 10.15, 20.30] = [ 28.85,115.39] Ry 
 Optimized for a Real-space Cutoff    1.51 Angstroem

   l    n(q)    QCUT    max X(q) W(low)/X(q) W(high)/X(q)  e(spline) 
   0      9    10.150    20.381    0.17E-03    0.18E-03    0.41E-06
   0      9    10.150    15.268    0.18E-03    0.20E-03    0.43E-06
   1      9    10.150     5.964    0.16E-03    0.20E-03    0.36E-06
   1      9    10.150     5.382    0.13E-03    0.16E-03    0.33E-06
  PAW_PBE Au 04Oct2007                  :
 energy of atom  1       EATOM= -926.0867
 kinetic energy error for atom=    0.0062 (will be added to EATOM!!)
  PAW_PBE O 08Apr2002                   :
 energy of atom  2       EATOM= -432.3788
 kinetic energy error for atom=    0.1156 (will be added to EATOM!!)


 POSCAR: Au O
  positions in cartesian coordinates
  No initial velocities read in


 exchange-correlation table for PE
   RHO(1)=    0.500       N(1)  =     2000
   RHO(2)=  100.500       N(2)  =     4000



--------------------------------------------------------------------------------------------------------


 ion  position               nearest neighbor table
   1  0.000  0.000  0.000-  12 2.93  16 2.93  10 2.93   8 2.93   6 2.93   4 2.93   7 2.93   3 2.93
                             2 2.93
   2  0.333  0.000  0.000-  10 2.93  11 2.93  17 2.93   3 2.93   9 2.93   4 2.93   5 2.93   8 2.93
                             1 2.93
   3  0.667  0.000  0.000-  11 2.93  18 2.93   2 2.93  12 2.93   5 2.93   7 2.93   9 2.93   6 2.93
                             1 2.93
   4  0.000  0.333  0.000-  10 2.93  13 2.93  15 2.93   7 2.93   9 2.93   2 2.93   1 2.93   6 2.93
                             5 2.93
   5  0.333  0.333  0.000-  14 2.93  11 2.93  13 2.93   8 2.93   6 2.93   3 2.93   7 2.93   2 2.93
                             4 2.93
   6  0.667  0.333  0.000-  12 2.93  14 2.93  15 2.93   9 2.93   8 2.93   5 2.93   1 2.93   3 2.93
                             4 2.93
   7  0.000  0.667  0.000-  13 2.93  18 2.93   4 2.93  16 2.93   5 2.93   3 2.93   1 2.93   9 2.93
                             8 2.93
   8  0.333  0.667  0.000-  14 2.93  16 2.93  17 2.93   6 2.93   5 2.93   9 2.93   1 2.93   2 2.93
                             7 2.93
   9  0.667  0.667  0.000-  15 2.93  17 2.93   6 2.93   8 2.93  18 2.93   4 2.93   2 2.93   3 2.93
                             7 2.93
  10  0.111  0.111  0.103-  26 2.91  19 2.93   2 2.93   4 2.93  13 2.93  11 2.93   1 2.93  15 2.93
                            17 2.93  16 2.93  12 2.93  20 3.00
  11  0.444  0.111  0.103-  27 2.91  21 2.93   5 2.93   2 2.93   3 2.93  13 2.93  14 2.93  10 2.93
                            18 2.93  17 2.93  12 2.93  20 3.00
  12  0.778  0.111  0.103-  25 2.88   6 2.93   1 2.93  15 2.93   3 2.93  14 2.93  16 2.93  18 2.93
                            11 2.93  10 2.93  21 2.96  19 2.96
  13  0.111  0.444  0.103-  22 2.93   7 2.93   4 2.93   5 2.93  11 2.93  10 2.93  14 2.93  18 2.93
                            16 2.93  15 2.93  23 2.94  20 2.97
  14  0.444  0.444  0.103-  24 2.89  21 2.93   5 2.93   8 2.93   6 2.93  11 2.93  13 2.93  12 2.93
                            16 2.93  17 2.93  15 2.93  23 2.94
  15  0.778  0.444  0.103-  24 2.89  19 2.93   9 2.93   6 2.93   4 2.93  12 2.93  10 2.93  17 2.93
                            18 2.93  13 2.93  14 2.93  22 2.94
  16  0.111  0.778  0.103-  25 2.89   8 2.93   1 2.93  17 2.93   7 2.93  14 2.93  12 2.93  13 2.93
                            10 2.93  18 2.93  23 2.94  26 2.96
  17  0.444  0.778  0.103-  24 2.87   8 2.93   9 2.93   2 2.93  16 2.93  10 2.93  15 2.93  14 2.93
                            11 2.93  18 2.93  26 2.94  27 2.94
  18  0.778  0.778  0.103-  25 2.90   7 2.93   3 2.93   9 2.93  13 2.93  11 2.93  15 2.93  12 2.93
                            17 2.93  16 2.93  22 2.94  27 2.96
  19  0.890  0.225  0.207-  22 2.90  20 2.91  26 2.91  28 2.91  33 2.91  15 2.93  10 2.93  24 2.95
                            25 2.96  12 2.96  21 2.99  31 3.02
  20  0.220  0.226  0.209-  22 2.90  23 2.90  21 2.91  19 2.91  26 2.91  27 2.91  13 2.97  11 3.00
                            10 3.00  29 3.07  31 3.12  32 3.12
  21  0.551  0.225  0.207-  23 2.90  20 2.91  27 2.91  33 2.91  30 2.91  14 2.93  11 2.93  24 2.95
                            25 2.96  12 2.96  19 2.99  32 3.02
  22  0.890  0.555  0.207-  19 2.90  20 2.90  34 2.91  36 2.92  23 2.93  13 2.93  15 2.94  24 2.94
                            18 2.94  25 2.95  27 2.99  31 3.02
  23  0.223  0.555  0.207-  21 2.90  20 2.90  34 2.91  35 2.92  22 2.93  13 2.94  14 2.94  24 2.94
                            16 2.94  25 2.95  26 2.99  32 3.02
  24  0.554  0.559  0.204-  17 2.87  15 2.89  14 2.89  33 2.92  23 2.94  22 2.94  26 2.94  27 2.94
                            36 2.95  19 2.95  21 2.95  35 2.95
  25  0.888  0.890  0.204-  12 2.88  16 2.89  18 2.90  34 2.93  28 2.93  30 2.93  22 2.95  23 2.95
                            27 2.95  26 2.95  19 2.96  21 2.96
  26  0.222  0.895  0.207-  27 2.90  35 2.91  10 2.91  19 2.91  20 2.91  28 2.92  17 2.94  24 2.94
                            25 2.95  16 2.96  23 2.99  29 3.00
  27  0.551  0.895  0.207-  26 2.90  36 2.91  21 2.91  11 2.91  20 2.91  30 2.92  17 2.94  24 2.94
                            25 2.95  18 2.96  22 2.99  29 3.00
  28  0.996  0.001  0.309-  30 2.86  34 2.88  19 2.91  26 2.92  25 2.93  35 2.94  33 2.97  31 2.97
                            29 2.98
  29  0.340  0.987  0.316-  37 2.15  36 2.82  35 2.82  30 2.98  28 2.98  27 3.00  26 3.00  20 3.07
                            32 3.18  31 3.19
  30  0.671  0.001  0.309-  28 2.86  34 2.88  21 2.91  27 2.92  25 2.93  36 2.94  33 2.97  32 2.97
                            29 2.98
  31  0.976  0.347  0.318-  37 2.15  33 2.79  36 2.82  28 2.97  34 2.98  19 3.02  22 3.02  20 3.12
                            29 3.19  32 3.24
  32  0.344  0.346  0.318-  37 2.15  33 2.79  35 2.82  30 2.97  34 2.98  21 3.02  23 3.02  20 3.12
                            29 3.18  31 3.24
  33  0.662  0.342  0.308-  31 2.79  32 2.79  35 2.90  36 2.90  21 2.91  19 2.91  24 2.92  30 2.97
                            28 2.97
  34  0.997  0.673  0.308-  28 2.88  30 2.88  22 2.91  23 2.91  25 2.93  35 2.95  36 2.95  32 2.98
                            31 2.98
  35  0.333  0.671  0.308-  32 2.82  29 2.82  33 2.90  36 2.90  26 2.91  23 2.92  28 2.94  34 2.95
                            24 2.95
  36  0.663  0.671  0.308-  31 2.82  29 2.82  33 2.90  35 2.90  27 2.91  22 2.92  30 2.94  24 2.95
                            34 2.95
  37  0.219  0.229  0.364-  32 2.15  31 2.15  29 2.15


IMPORTANT INFORMATION: All symmetrisations will be switched off!
NOSYMM: (Re-)initialisation of all symmetry stuff for point group C_1.


----------------------------------------------------------------------------------------

                                     Primitive cell                                     

  volume of cell :    1556.3341

  direct lattice vectors                    reciprocal lattice vectors
     8.803479426  0.000000000  0.000000000     0.113591451 -0.065582055  0.000000000
     4.401739713  7.624036824  0.000000000     0.000000000  0.131164109  0.000000000
     0.000000000  0.000000000 23.188010851     0.000000000  0.000000000  0.043125735

  length of vectors
     8.803479426  8.803479426 23.188010851     0.131164109  0.131164109  0.043125735

  position of ions in fractional coordinates (direct lattice)
     0.000000000  0.000000000  0.000000000
     0.333333333  0.000000000  0.000000000
     0.666666667  0.000000000  0.000000000
     0.000000000  0.333333333  0.000000000
     0.333333333  0.333333333  0.000000000
     0.666666667  0.333333333  0.000000000
     0.000000000  0.666666667  0.000000000
     0.333333333  0.666666667  0.000000000
     0.666666667  0.666666667  0.000000000
     0.111111111  0.111111111  0.103329416
     0.444444444  0.111111111  0.103329416
     0.777777778  0.111111111  0.103329416
     0.111111111  0.444444444  0.103329416
     0.444444444  0.444444444  0.103329416
     0.777777778  0.444444444  0.103329416
     0.111111111  0.777777778  0.103329416
     0.444444444  0.777777778  0.103329416
     0.777777778  0.777777778  0.103329416
     0.890443160  0.225108325  0.206859648
     0.220219090  0.226353699  0.209454769
     0.551221311  0.225023136  0.206853439
     0.889909639  0.554606597  0.206880103
     0.222535058  0.554526268  0.206884503
     0.554162928  0.558590852  0.204005923
     0.888291184  0.890425923  0.204351258
     0.221687310  0.894756239  0.206769065
     0.550579663  0.894752471  0.206760032
     0.995650798  0.000661930  0.308563963
     0.340015671  0.987190805  0.316120281
     0.670681724  0.000787145  0.308601472
     0.975944114  0.346630596  0.317519867
     0.344023242  0.346477178  0.317693877
     0.662333799  0.341887446  0.307730594
     0.997073968  0.672792408  0.308301540
     0.333047786  0.671103633  0.308426641
     0.662639301  0.671116577  0.308361517
     0.218816130  0.228723518  0.364326337

  ion indices of the primitive-cell ions
   primitive index   ion index
                 1           1
                 2           2
                 3           3
                 4           4
                 5           5
                 6           6
                 7           7
                 8           8
                 9           9
                10          10
                11          11
                12          12
                13          13
                14          14
                15          15
                16          16
                17          17
                18          18
                19          19
                20          20
                21          21
                22          22
                23          23
                24          24
                25          25
                26          26
                27          27
                28          28
                29          29
                30          30
                31          31
                32          32
                33          33
                34          34
                35          35
                36          36
                37          37

----------------------------------------------------------------------------------------



 KPOINTS: KPOINTS created by Atomic Simulation Env

Automatic generation of k-mesh.
 Grid dimensions read from file:
 generate k-points for:    2    2    1

 Generating k-lattice:

  Cartesian coordinates                     Fractional coordinates (reciprocal lattice)
     0.056795725 -0.032791027  0.000000000     0.500000000  0.000000000  0.000000000
     0.000000000  0.065582055  0.000000000     0.000000000  0.500000000  0.000000000
     0.000000000  0.000000000  0.043125735     0.000000000  0.000000000  1.000000000

  Length of vectors
     0.065582055  0.065582055  0.043125735

  Shift w.r.t. Gamma in fractional coordinates (k-lattice)
     0.500000000  0.500000000  0.000000000

 
 Subroutine IBZKPT returns following result:
 ===========================================
 
 Found      6 irreducible k-points:
 
 Following reciprocal coordinates:
            Coordinates               Weight
  0.250000  0.250000  0.000000      2.000000
  0.000000  0.250000  0.000000      2.000000
 -0.250000  0.000000  0.000000      2.000000
 -0.250000  0.250000  0.000000      2.000000
  0.500000 -0.250000  0.000000      2.000000
 -0.250000  0.500000  0.000000      2.000000
 
 Following cartesian coordinates:
            Coordinates               Weight
  0.028398  0.016396  0.000000      2.000000
  0.000000  0.032791  0.000000      2.000000
 -0.028398  0.016396  0.000000      2.000000
 -0.028398  0.049187  0.000000      2.000000
  0.056796 -0.065582  0.000000      2.000000
 -0.028398  0.081978  0.000000      2.000000
 


--------------------------------------------------------------------------------------------------------




 Dimension of arrays:
   k-points           NKPTS =      6   k-points in BZ     NKDIM =      6   number of bands    NBANDS=    242
   number of dos      NEDOS =    301   number of ions     NIONS =     37
   non local maximal  LDIM  =      6   non local SUM 2l+1 LMDIM =     18
   total plane-waves  NPLWV = 576000
   max r-space proj   IRMAX =   5865   max aug-charges    IRDMAX=  22830
   dimension x,y,z NGX =    60 NGY =   60 NGZ =  160
   dimension x,y,z NGXF=   120 NGYF=  120 NGZF=  320
   support grid    NGXF=   120 NGYF=  120 NGZF=  320
   ions per type =              36   1
   NGX,Y,Z   is equivalent  to a cutoff of  11.33, 11.33, 11.47 a.u.
   NGXF,Y,Z  is equivalent  to a cutoff of  22.66, 22.66, 22.94 a.u.

 SYSTEM =  unknown system                          
 POSCAR =  Au O                                    

 Startparameter for this run:
   NWRITE =      2    write-flag & timer
   PREC   = accura    normal or accurate (medium, high low for compatibility)
   ISTART =      0    job   : 0-new  1-cont  2-samecut
   ICHARG =      2    charge: 1-file 2-atom 10-const
   ISPIN  =      1    spin polarized calculation?
   LNONCOLLINEAR =      F non collinear calculations
   LSORBIT =      F    spin-orbit coupling
   INIWAV =      1    electr: 0-lowe 1-rand  2-diag
   LASPH  =      F    aspherical Exc in radial PAW
 Electronic Relaxation 1
   ENCUT  =  400.0 eV  29.40 Ry    5.42 a.u.  14.36 14.36 37.81*2*pi/ulx,y,z
   ENINI  =  400.0     initial cutoff
   ENAUG  =  605.4 eV  augmentation charge cutoff
   NELM   =     60;   NELMIN=  2; NELMDL= -5     # of ELM steps 
   EDIFF  = 0.1E-03   stopping-criterion for ELM
   LREAL  =      T    real-space projection
   NLSPLINE    = F    spline interpolate recip. space projectors
   LCOMPAT=      F    compatible to vasp.4.4
   GGA_COMPAT  = T    GGA compatible to vasp.4.4-vasp.4.6
   LMAXPAW     = -100 max onsite density
   LMAXMIX     =    2 max onsite mixed and CHGCAR
   VOSKOWN=      0    Vosko Wilk Nusair interpolation
   ROPT   =   -0.00025  -0.00025
 Ionic relaxation
   EDIFFG = -.3E-01   stopping-criterion for IOM
   NSW    =      0    number of steps for IOM
   NBLOCK =      1;   KBLOCK =      1    inner block; outer block 
   IBRION =     -1    ionic relax: 0-MD 1-quasi-New 2-CG
   NFREE  =      0    steps in history (QN), initial steepest desc. (CG)
   ISIF   =      2    stress and relaxation
   IWAVPR =     10    prediction:  0-non 1-charg 2-wave 3-comb
   ISYM   =      0    0-nonsym 1-usesym 2-fastsym
   LCORR  =      T    Harris-Foulkes like correction to forces

   POTIM  = 0.5000    time-step for ionic-motion
   TEIN   =    0.0    initial temperature
   TEBEG  =    0.0;   TEEND  =   0.0 temperature during run
   SMASS  =  -3.00    Nose mass-parameter (am)
   estimated Nose-frequenzy (Omega)   =  0.10E-29 period in steps = 0.13E+47 mass=  -0.177E-26a.u.
   SCALEE = 1.0000    scale energy and forces
   NPACO  =    256;   APACO  = 10.0  distance and # of slots for P.C.
   PSTRESS=    0.0 pullay stress

  Mass of Ions in am
   POMASS = 196.97 16.00
  Ionic Valenz
   ZVAL   =  11.00  6.00
  Atomic Wigner-Seitz radii
   RWIGS  =  -1.00 -1.00
  virtual crystal weights 
   VCA    =   1.00  1.00
   NELECT =     402.0000    total number of electrons
   NUPDOWN=      -1.0000    fix difference up-down

 DOS related values:
   EMIN   =  10.00;   EMAX   =-10.00  energy-range for DOS
   EFERMI =   0.00;   METHOD = LEGACY      
   ISMEAR =     1;   SIGMA  =   0.10  broadening in eV -4-tet -1-fermi 0-gaus

 Electronic relaxation 2 (details)
   IALGO  =     68    algorithm
   LDIAG  =      T    sub-space diagonalisation (order eigenvalues)
   LSUBROT=      F    optimize rotation matrix (better conditioning)
   TURBO    =      0    0=normal 1=particle mesh
   IRESTART =      0    0=no restart 2=restart with 2 vectors
   NREBOOT  =      0    no. of reboots
   NMIN     =      0    reboot dimension
   EREF     =   0.00    reference energy to select bands
   IMIX   =      4    mixing-type and parameters
     AMIX     =   0.40;   BMIX     =  1.00
     AMIX_MAG =   1.60;   BMIX_MAG =  1.00
     AMIN     =   0.10
     WC   =   100.;   INIMIX=   1;  MIXPRE=   1;  MAXMIX= -45

 Intra band minimization:
   WEIMIN = 0.0000     energy-eigenvalue tresh-hold
   EBREAK =  0.10E-06  absolut break condition
   DEPER  =   0.30     relativ break condition  

   TIME   =   0.40     timestep for ELM

  volume/ion in A,a.u.               =      42.06       283.86
  Fermi-wavevector in a.u.,A,eV,Ry     =   1.042596  1.970220 14.789610  1.087006
  Thomas-Fermi vector in A             =   2.177268

 Write flags
   LWAVE        =      F    write WAVECAR
   LDOWNSAMPLE  =      F    k-point downsampling of WAVECAR
   LCHARG       =      F    write CHGCAR
   LVTOT        =      F    write LOCPOT, total local potential
   LVHAR        =      F    write LOCPOT, Hartree potential only
   WRT_POTENTIAL= false  ! write potential to hdf5 file
   LELF         =      F    write electronic localiz. function (ELF)
   LORBIT       =      0    0 simple, 1 ext, 2 COOP (PROOUT), +10 PAW based schemes


 Dipole corrections
   LMONO      =      F    monopole corrections only (constant potential shift)
   LDIPOL     =      T    correct potential (dipole corrections)
   IDIPOL     =      3    1-x, 2-y, 3-z, 4-all directions 
   EPSILON    =  1.0000000 bulk dielectric constant
   LVACPOTAV  =      F  vacuum potentials using an averaging scheme for the charge density
   VACPOTFLAT =  0.1000000 required flatness to determine vacuum potential
 Exchange correlation treatment:
   GGA     = PE    functional components
   XC_C    = 1    coefficients multiplying the functional components
   LIBXC   =     F    Libxc                    
   VOSKOWN =     0    Vosko Wilk Nusair interpolation
   LHFCALC =     F    Hartree Fock is set to
   LHFONE  =     F    Hartree Fock one center treatment
   AEXX    =    0.0000 exact exchange contribution

 Parameters of functionals:
   PE:
     No parameter

 Van der Waals corrections
   IVDW    =     0    specifies the selected vdW correction

 Linear response parameters
   LEPSILON=     F    determine dielectric tensor
   LRPA    =     F    only Hartree local field effects (RPA)
   LNABLA  =     F    use nabla operator in PAW spheres
   LVEL    =     F    velocity operator in full k-point grid
   CSHIFT  =0.1000    complex shift for real part using Kramers Kronig
   OMEGAMAX=  -1.0    maximum frequency
   DEG_THRESHOLD= 0.2000000E-02 threshold for treating states as degnerate
   RTIME   =   -0.100 relaxation time in fs
  (WPLASMAI=    0.000 imaginary part of plasma frequency in eV, 0.658/RTIME)
   DFIELD  = 0.0000000 0.0000000 0.0000000 field for delta impulse in time

  Optional k-point grid parameters
   LKPOINTS_OPT  =     F    use optional k-point grid
   KPOINTS_OPT_MODE=     1    mode for optional k-point grid

 Orbital magnetization related:
   ORBITALMAG=     F  switch on orbital magnetization
   LCHIMAG   =     F  perturbation theory with respect to B field
   DQ        =  0.001000  dq finite difference perturbation B field
   LLRAUG    =     F  two centre corrections for induced B field
   LBONE     =     F  B-component reconstruction in AE one-centre
   LVGVCALC  =     T  calculate vGv susceptibility
   LVGVAPPL  =     F  apply vGv susceptibility instead of pGv for G=0

 Random number generation:
   RANDOM_GENERATOR = DEFAULT
   PCG_SEED         = not used


--------------------------------------------------------------------------------------------------------


 Static calculation
 charge density and potential will be updated during run
 non-spin polarized calculation
 RMM-DIIS sequential band-by-band and
  variant of blocked Davidson during initial phase
 perform sub-space diagonalisation
    before iterative eigenvector-optimisation
 modified Broyden-mixing scheme, WC =      100.0
 initial mixing is a Kerker type mixing with AMIX =  0.4000 and BMIX =      1.0000
 Hartree-type preconditioning will be used
 using additional bands           41
 real space projection scheme for non local part
 use partial core corrections
 calculate Harris-corrections to forces   (improved forces if not selfconsistent)
 use gradient corrections 
 use of overlap-Matrix (Vanderbilt PP)
 Methfessel and Paxton  Order N= 1 SIGMA  =   0.10


--------------------------------------------------------------------------------------------------------


  energy-cutoff  :      400.00
  volume of cell :     1556.33
      direct lattice vectors                 reciprocal lattice vectors
     8.803479426  0.000000000  0.000000000     0.113591451 -0.065582055  0.000000000
     4.401739713  7.624036824  0.000000000     0.000000000  0.131164109  0.000000000
     0.000000000  0.000000000 23.188010851     0.000000000  0.000000000  0.043125735

  length of vectors
     8.803479426  8.803479426 23.188010851     0.131164109  0.131164109  0.043125735



 k-points in units of 2pi/SCALE and weight: KPOINTS created by Atomic Simulation Env
   0.02839786  0.01639551  0.00000000       0.167
   0.00000000  0.03279103  0.00000000       0.167
  -0.02839786  0.01639551  0.00000000       0.167
  -0.02839786  0.04918654  0.00000000       0.167
   0.05679573 -0.06558205  0.00000000       0.167
  -0.02839786  0.08197757  0.00000000       0.167

 k-points in reciprocal lattice and weights: KPOINTS created by Atomic Simulation Env
   0.25000000  0.25000000  0.00000000       0.167
   0.00000000  0.25000000  0.00000000       0.167
  -0.25000000  0.00000000  0.00000000       0.167
  -0.25000000  0.25000000  0.00000000       0.167
   0.50000000 -0.25000000  0.00000000       0.167
  -0.25000000  0.50000000  0.00000000       0.167

 position of ions in fractional coordinates (direct lattice) 
   0.00000000  0.00000000  0.00000000
   0.33333333  0.00000000  0.00000000
   0.66666667  0.00000000  0.00000000
   0.00000000  0.33333333  0.00000000
   0.33333333  0.33333333  0.00000000
   0.66666667  0.33333333  0.00000000
   0.00000000  0.66666667  0.00000000
   0.33333333  0.66666667  0.00000000
   0.66666667  0.66666667  0.00000000
   0.11111111  0.11111111  0.10332942
   0.44444444  0.11111111  0.10332942
   0.77777778  0.11111111  0.10332942
   0.11111111  0.44444444  0.10332942
   0.44444444  0.44444444  0.10332942
   0.77777778  0.44444444  0.10332942
   0.11111111  0.77777778  0.10332942
   0.44444444  0.77777778  0.10332942
   0.77777778  0.77777778  0.10332942
   0.89044316  0.22510833  0.20685965
   0.22021909  0.22635370  0.20945477
   0.55122131  0.22502314  0.20685344
   0.88990964  0.55460660  0.20688010
   0.22253506  0.55452627  0.20688450
   0.55416293  0.55859085  0.20400592
   0.88829118  0.89042592  0.20435126
   0.22168731  0.89475624  0.20676906
   0.55057966  0.89475247  0.20676003
   0.99565080  0.00066193  0.30856396
   0.34001567  0.98719080  0.31612028
   0.67068172  0.00078714  0.30860147
   0.97594411  0.34663060  0.31751987
   0.34402324  0.34647718  0.31769388
   0.66233380  0.34188745  0.30773059
   0.99707397  0.67279241  0.30830154
   0.33304779  0.67110363  0.30842664
   0.66263930  0.67111658  0.30836152
   0.21881613  0.22872352  0.36432634

 position of ions in cartesian coordinates  (Angst):
   0.00000000  0.00000000  0.00000000
   2.93449314  0.00000000  0.00000000
   5.86898628  0.00000000  0.00000000
   1.46724657  2.54134561  0.00000000
   4.40173971  2.54134561  0.00000000
   7.33623285  2.54134561  0.00000000
   2.93449314  5.08269122  0.00000000
   5.86898628  5.08269122  0.00000000
   8.80347943  5.08269122  0.00000000
   1.46724657  0.84711520  2.39600362
   4.40173971  0.84711520  2.39600362
   7.33623285  0.84711520  2.39600362
   2.93449314  3.38846081  2.39600362
   5.86898628  3.38846081  2.39600362
   8.80347943  3.38846081  2.39600362
   4.40173971  5.92980642  2.39600362
   7.33623285  5.92980642  2.39600362
  10.27072600  5.92980642  2.39600362
   8.82986629  1.71623416  4.79666377
   2.93504429  1.72572894  4.85683946
   5.84315874  1.71558468  4.79651978
  10.27553509  4.22834112  4.79713807
   4.39996309  4.22772868  4.79724010
   7.33733347  4.25871722  4.73049155
  11.73947631  6.78864003  4.73849918
   5.89010374  6.82165452  4.79456332
   8.78548422  6.82162579  4.79435387
   8.76810496  0.00504658  7.15498452
   7.33867793  7.52637905  7.33020050
   5.90779757  0.00600122  7.15585428
  10.11748159  2.64272443  7.36265412
   4.55370389  2.64155477  7.36668908
   7.33574152  2.60656248  7.13566035
  11.73917722  5.12939409  7.14889945
   5.88600285  5.11651881  7.15180030
   8.78761194  5.11661749  7.15029020
   2.93312469  1.74379653  8.44800305



--------------------------------------------------------------------------------------------------------


 k-point     1 :   0.2500 0.2500 0.0000  plane waves:   28271
 k-point     2 :   0.0000 0.2500 0.0000  plane waves:   28271
 k-point     3 :  -0.2500 0.0000 0.0000  plane waves:   28271
 k-point     4 :  -0.2500 0.2500 0.0000  plane waves:   28278
 k-point     5 :   0.5000-0.2500 0.0000  plane waves:   28278
 k-point     6 :  -0.2500 0.5000 0.0000  plane waves:   28278

 maximum and minimum number of plane-waves per node :      1212     1152

 maximum number of plane-waves:     28278
 maximum index in each direction: 
   IXMAX=   14   IYMAX=   14   IZMAX=   37
   IXMIN=  -14   IYMIN=  -14   IZMIN=  -37


 real space projection operators:
  total allocation   :      28790.58 KBytes
  max/ min on nodes  :       1448.77        939.23


 parallel 3D FFT for wavefunctions:
    minimum data exchange during FFTs selected (reduces bandwidth)
 parallel 3D FFT for charge:
    minimum data exchange during FFTs selected (reduces bandwidth)


 total amount of memory used by VASP MPI-rank0    61943. kBytes
=======================================================================

   base      :      30000. kBytes
   nonlr-proj:       5464. kBytes
   fftplans  :       4620. kBytes
   grid      :       7634. kBytes
   one-center:         31. kBytes
   wavefun   :      14194. kBytes

     INWAV:  cpu time      0.0000: real time      0.0000
 Broyden mixing: mesh for mixing (old mesh)
   NGX = 29   NGY = 29   NGZ = 75
  (NGX  =120   NGY  =120   NGZ  =320)
  gives a total of  63075 points

 initial charge density was supplied:
 charge density of overlapping atoms calculated
 number of electron     402.0000000 magnetization 
 keeping initial charge density in first step


--------------------------------------------------------------------------------------------------------


 Maximum index for non-local projection operator          527
 Maximum index for augmentation-charges         1037 (set IRDMAX)


--------------------------------------------------------------------------------------------------------


 First call to EWALD:  gamma=   0.153
 Maximum number of real-space cells 4x 4x 2
 Maximum number of reciprocal cells 2x 2x 5

    FEWALD:  cpu time      0.0016: real time      0.0016


--------------------------------------- Ionic step        1  -------------------------------------------




--------------------------------------- Iteration      1(   1)  ---------------------------------------


    POTLOK:  cpu time      0.0556: real time      0.0564
    SETDIJ:  cpu time      0.0114: real time      0.0115
     EDDAV:  cpu time      3.7448: real time      3.7721
       DOS:  cpu time      0.0012: real time      0.0012
    --------------------------------------------
      LOOP:  cpu time      3.8130: real time      3.8413

 eigenvalue-minimisations  :  2904
 total energy-change (2. order) : 0.2472867E+04  (-0.1592117E+05)
 number of electron     402.0000000 magnetization 
 augmentation part      402.0000000 magnetization 

 DIPCOR: dipole corrections for dipol
 direction  3 min pos   220,
 dipolmoment           0.000000      0.000000      0.000135 electrons x Angstroem
 Tr[quadrupol]     -4993.185505

 energy correction for charged system         0.000000 eV
 dipol+quadrupol energy correction           -0.000000 eV
 added-field ion interaction          0.003790 eV  (added to PSCEN)


 Free energy of the ion-electron system (eV)
  ---------------------------------------------------
  alpha Z        PSCENC =       990.63811796
  Ewald energy   TEWEN  =    112507.81841367
  -Hartree energ DENC   =   -147826.98869530
  -exchange      EXHF   =         0.00000000
  -V(xc)+E(xc)   XCENC  =       577.43341809
  PAW double counting   =     31814.05959759   -30984.71300122
  entropy T*S    EENTRO =        -0.00655772
  eigenvalues    EBANDS =      1623.46399817
  atomic energy  EATOM  =     33771.16187166
  Solvation  Ediel_sol  =         0.00000000
  ---------------------------------------------------
  free energy    TOTEN  =      2472.86716289 eV

  energy without entropy =     2472.87372061  energy(sigma->0) =     2472.86934879


--------------------------------------------------------------------------------------------------------




--------------------------------------- Iteration      1(   2)  ---------------------------------------


     EDDAV:  cpu time      4.0784: real time      4.1033
       DOS:  cpu time      0.0010: real time      0.0010
    --------------------------------------------
      LOOP:  cpu time      4.0794: real time      4.1043

 eigenvalue-minimisations  :  3336
 total energy-change (2. order) :-0.2436965E+04  (-0.2250439E+04)
 number of electron     402.0000000 magnetization 
 augmentation part      402.0000000 magnetization 

 DIPCOR: dipole corrections for dipol
 direction  3 min pos   220,
 dipolmoment           0.000000      0.000000      0.000135 electrons x Angstroem
 Tr[quadrupol]     -4993.185505

 energy correction for charged system         0.000000 eV
 dipol+quadrupol energy correction           -0.000000 eV
 added-field ion interaction          0.003790 eV  (added to PSCEN)


 Free energy of the ion-electron system (eV)
  ---------------------------------------------------
  alpha Z        PSCENC =       990.63811796
  Ewald energy   TEWEN  =    112507.81841367
  -Hartree energ DENC   =   -147826.98869530
  -exchange      EXHF   =         0.00000000
  -V(xc)+E(xc)   XCENC  =       577.43341809
  PAW double counting   =     31814.05959759   -30984.71300122
  entropy T*S    EENTRO =         0.00721519
  eigenvalues    EBANDS =      -813.51491888
  atomic energy  EATOM  =     33771.16187166
  Solvation  Ediel_sol  =         0.00000000
  ---------------------------------------------------
  free energy    TOTEN  =        35.90201875 eV

  energy without entropy =       35.89480356  energy(sigma->0) =       35.89961369


--------------------------------------------------------------------------------------------------------




--------------------------------------- Iteration      1(   3)  ---------------------------------------


     EDDAV:  cpu time      4.0449: real time      4.0684
       DOS:  cpu time      0.0010: real time      0.0010
    --------------------------------------------
      LOOP:  cpu time      4.0459: real time      4.0694

 eigenvalue-minimisations  :  3304
 total energy-change (2. order) :-0.1582384E+03  (-0.1507000E+03)
 number of electron     402.0000000 magnetization 
 augmentation part      402.0000000 magnetization 

 DIPCOR: dipole corrections for dipol
 direction  3 min pos   220,
 dipolmoment           0.000000      0.000000      0.000135 electrons x Angstroem
 Tr[quadrupol]     -4993.185505

 energy correction for charged system         0.000000 eV
 dipol+quadrupol energy correction           -0.000000 eV
 added-field ion interaction          0.003790 eV  (added to PSCEN)


 Free energy of the ion-electron system (eV)
  ---------------------------------------------------
  alpha Z        PSCENC =       990.63811796
  Ewald energy   TEWEN  =    112507.81841367
  -Hartree energ DENC   =   -147826.98869530
  -exchange      EXHF   =         0.00000000
  -V(xc)+E(xc)   XCENC  =       577.43341809
  PAW double counting   =     31814.05959759   -30984.71300122
  entropy T*S    EENTRO =        -0.00952257
  eigenvalues    EBANDS =      -971.73661837
  atomic energy  EATOM  =     33771.16187166
  Solvation  Ediel_sol  =         0.00000000
  ---------------------------------------------------
  free energy    TOTEN  =      -122.33641850 eV

  energy without entropy =     -122.32689593  energy(sigma->0) =     -122.33324431


--------------------------------------------------------------------------------------------------------




--------------------------------------- Iteration      1(   4)  ---------------------------------------


     EDDAV:  cpu time      3.9922: real time      4.0145
       DOS:  cpu time      0.0012: real time      0.0012
    --------------------------------------------
      LOOP:  cpu time      3.9934: real time      4.0157

 eigenvalue-minimisations  :  3248
 total energy-change (2. order) :-0.4336392E+01  (-0.4298016E+01)
 number of electron     402.0000000 magnetization 
 augmentation part      402.0000000 magnetization 

 DIPCOR: dipole corrections for dipol
 direction  3 min pos   220,
 dipolmoment           0.000000      0.000000      0.000135 electrons x Angstroem
 Tr[quadrupol]     -4993.185505

 energy correction for charged system         0.000000 eV
 dipol+quadrupol energy correction           -0.000000 eV
 added-field ion interaction          0.003790 eV  (added to PSCEN)


 Free energy of the ion-electron system (eV)
  ---------------------------------------------------
  alpha Z        PSCENC =       990.63811796
  Ewald energy   TEWEN  =    112507.81841367
  -Hartree energ DENC   =   -147826.98869530
  -exchange      EXHF   =         0.00000000
  -V(xc)+E(xc)   XCENC  =       577.43341809
  PAW double counting   =     31814.05959759   -30984.71300122
  entropy T*S    EENTRO =        -0.00982286
  eigenvalues    EBANDS =      -976.07271045
  atomic energy  EATOM  =     33771.16187166
  Solvation  Ediel_sol  =         0.00000000
  ---------------------------------------------------
  free energy    TOTEN  =      -126.67281087 eV

  energy without entropy =     -126.66298801  energy(sigma->0) =     -126.66953658


--------------------------------------------------------------------------------------------------------




--------------------------------------- Iteration      1(   5)  ---------------------------------------


     EDDAV:  cpu time      4.1929: real time      4.2165
       DOS:  cpu time      0.0012: real time      0.0012
    CHARGE:  cpu time      0.1582: real time      0.1588
    MIXING:  cpu time      0.0012: real time      0.0012
    --------------------------------------------
      LOOP:  cpu time      4.3536: real time      4.3777

 eigenvalue-minimisations  :  3464
 total energy-change (2. order) :-0.1557909E+00  (-0.1553575E+00)
 number of electron     401.9999980 magnetization 
 augmentation part      139.9891554 magnetization 

 DIPCOR: dipole corrections for dipol
 direction  3 min pos   220,
 dipolmoment           0.000000      0.000000      0.000135 electrons x Angstroem
 Tr[quadrupol]     -4993.185505

 energy correction for charged system         0.000000 eV
 dipol+quadrupol energy correction           -0.000000 eV
 added-field ion interaction          0.003790 eV  (added to PSCEN)


 Broyden mixing:
  rms(total) = 0.44388E+01    rms(broyden)= 0.44387E+01
  rms(prec ) = 0.45310E+01
  weight for this iteration     100.00

 Free energy of the ion-electron system (eV)
  ---------------------------------------------------
  alpha Z        PSCENC =       990.63811796
  Ewald energy   TEWEN  =    112507.81841367
  -Hartree energ DENC   =   -147826.98869530
  -exchange      EXHF   =         0.00000000
  -V(xc)+E(xc)   XCENC  =       577.43341809
  PAW double counting   =     31814.05959759   -30984.71300122
  entropy T*S    EENTRO =        -0.00982414
  eigenvalues    EBANDS =      -976.22850008
  atomic energy  EATOM  =     33771.16187166
  Solvation  Ediel_sol  =         0.00000000
  ---------------------------------------------------
  free energy    TOTEN  =      -126.82860178 eV

  energy without entropy =     -126.81877765  energy(sigma->0) =     -126.82532707


--------------------------------------------------------------------------------------------------------




--------------------------------------- Iteration      1(   6)  ---------------------------------------


    POTLOK:  cpu time      0.0438: real time      0.0440
    SETDIJ:  cpu time      0.0089: real time      0.0090
    EDDIAG:  cpu time      0.5906: real time      0.5935
  RMM-DIIS:  cpu time      2.3318: real time      2.3438
    ORTHCH:  cpu time      0.0875: real time      0.0879
       DOS:  cpu time      0.0009: real time      0.0009
    CHARGE:  cpu time      0.1554: real time      0.1560
    MIXING:  cpu time      0.0011: real time      0.0011
    --------------------------------------------
      LOOP:  cpu time      3.2200: real time      3.2362

 eigenvalue-minimisations  :  3129
 total energy-change (2. order) : 0.6080159E+01  (-0.3023780E+01)
 number of electron     401.9999979 magnetization 
 augmentation part      143.9933254 magnetization 

 DIPCOR: dipole corrections for dipol
 direction  3 min pos   225,
 dipolmoment           0.000000      0.000000      0.606297 electrons x Angstroem
 Tr[quadrupol]     -4989.779869

 energy correction for charged system         0.000000 eV
 dipol+quadrupol energy correction           -0.021370 eV
 added-field ion interaction         27.335306 eV  (added to PSCEN)


 Broyden mixing:
  rms(total) = 0.36728E+01    rms(broyden)= 0.36722E+01
  rms(prec ) = 0.39494E+01
  weight for this iteration     100.00

 eigenvalues of (default mixing * dielectric matrix)
  average eigenvalue GAMMA=   0.7943
  0.7943

 Free energy of the ion-electron system (eV)
  ---------------------------------------------------
  alpha Z        PSCENC =      1017.94826452
  Ewald energy   TEWEN  =    112507.81841367
  -Hartree energ DENC   =   -147443.32179607
  -exchange      EXHF   =         0.00000000
  -V(xc)+E(xc)   XCENC  =       566.52410731
  PAW double counting   =     33621.38938054   -32831.74568031
  entropy T*S    EENTRO =         0.03225758
  eigenvalues    EBANDS =     -1330.55526135
  atomic energy  EATOM  =     33771.16187166
  Solvation  Ediel_sol  =         0.00000000
  ---------------------------------------------------
  free energy    TOTEN  =      -120.74844245 eV

  energy without entropy =     -120.78070003  energy(sigma->0) =     -120.75919498


--------------------------------------------------------------------------------------------------------




--------------------------------------- Iteration      1(   7)  ---------------------------------------


    POTLOK:  cpu time      0.0434: real time      0.0436
    SETDIJ:  cpu time      0.0090: real time      0.0091
    EDDIAG:  cpu time      0.5845: real time      0.5871
  RMM-DIIS:  cpu time      2.4867: real time      2.4996
    ORTHCH:  cpu time      0.0891: real time      0.0895
       DOS:  cpu time      0.0009: real time      0.0009
    CHARGE:  cpu time      0.1538: real time      0.1544
    MIXING:  cpu time      0.0011: real time      0.0011
    --------------------------------------------
      LOOP:  cpu time      3.3684: real time      3.3852

 eigenvalue-minimisations  :  3342
 total energy-change (2. order) :-0.1385239E+02  (-0.3561574E+01)
 number of electron     401.9999979 magnetization 
 augmentation part      143.9362902 magnetization 

 DIPCOR: dipole corrections for dipol
 direction  3 min pos   231,
 dipolmoment           0.000000      0.000000     -1.484944 electrons x Angstroem
 Tr[quadrupol]     -4987.628093

 energy correction for charged system         0.000000 eV
 dipol+quadrupol energy correction           -0.128190 eV
 added-field ion interaction        -97.125878 eV  (added to PSCEN)


 Broyden mixing:
  rms(total) = 0.32078E+01    rms(broyden)= 0.32071E+01
  rms(prec ) = 0.40478E+01
  weight for this iteration     100.00

 eigenvalues of (default mixing * dielectric matrix)
  average eigenvalue GAMMA=   1.1388
  1.9345  0.3431

 Free energy of the ion-electron system (eV)
  ---------------------------------------------------
  alpha Z        PSCENC =       893.38026010
  Ewald energy   TEWEN  =    112507.81841367
  -Hartree energ DENC   =   -147451.30548226
  -exchange      EXHF   =         0.00000000
  -V(xc)+E(xc)   XCENC  =       562.80808716
  PAW double counting   =     34491.09516954   -33714.51145318
  entropy T*S    EENTRO =         0.00010231
  eigenvalues    EBANDS =     -1195.04779935
  atomic energy  EATOM  =     33771.16187166
  Solvation  Ediel_sol  =         0.00000000
  ---------------------------------------------------
  free energy    TOTEN  =      -134.60083036 eV

  energy without entropy =     -134.60093267  energy(sigma->0) =     -134.60086446


--------------------------------------------------------------------------------------------------------




--------------------------------------- Iteration      1(   8)  ---------------------------------------


    POTLOK:  cpu time      0.0436: real time      0.0438
    SETDIJ:  cpu time      0.0095: real time      0.0096
    EDDIAG:  cpu time      0.5832: real time      0.5872
  RMM-DIIS:  cpu time      2.5513: real time      2.5646
    ORTHCH:  cpu time      0.0878: real time      0.0882
       DOS:  cpu time      0.0009: real time      0.0009
    CHARGE:  cpu time      0.1524: real time      0.1530
    MIXING:  cpu time      0.0012: real time      0.0012
    --------------------------------------------
      LOOP:  cpu time      3.4299: real time      3.4485

 eigenvalue-minimisations  :  3411
 total energy-change (2. order) : 0.5037067E+00  (-0.3190002E+01)
 number of electron     401.9999979 magnetization 
 augmentation part      144.6698318 magnetization 

 DIPCOR: dipole corrections for dipol
 direction  3 min pos   220,
 dipolmoment           0.000000      0.000000      1.591822 electrons x Angstroem
 Tr[quadrupol]     -4995.026436

 energy correction for charged system         0.000000 eV
 dipol+quadrupol energy correction           -0.147307 eV
 added-field ion interaction         44.811648 eV  (added to PSCEN)


 Broyden mixing:
  rms(total) = 0.25067E+01    rms(broyden)= 0.25066E+01
  rms(prec ) = 0.33564E+01
  weight for this iteration     100.00

 eigenvalues of (default mixing * dielectric matrix)
  average eigenvalue GAMMA=   1.0654
  2.5067  0.4303  0.2593

 Free energy of the ion-electron system (eV)
  ---------------------------------------------------
  alpha Z        PSCENC =      1035.29866903
  Ewald energy   TEWEN  =    112507.81841367
  -Hartree energ DENC   =   -147409.17408158
  -exchange      EXHF   =         0.00000000
  -V(xc)+E(xc)   XCENC  =       559.37237188
  PAW double counting   =     35721.73071305   -34965.25165624
  entropy T*S    EENTRO =        -0.02147063
  eigenvalues    EBANDS =     -1355.03195450
  atomic energy  EATOM  =     33771.16187166
  Solvation  Ediel_sol  =         0.00000000
  ---------------------------------------------------
  free energy    TOTEN  =      -134.09712367 eV

  energy without entropy =     -134.07565304  energy(sigma->0) =     -134.08996679


--------------------------------------------------------------------------------------------------------




--------------------------------------- Iteration      1(   9)  ---------------------------------------


    POTLOK:  cpu time      0.0435: real time      0.0437
    SETDIJ:  cpu time      0.0100: real time      0.0100
    EDDIAG:  cpu time      0.5820: real time      0.5846
  RMM-DIIS:  cpu time      2.4492: real time      2.4619
    ORTHCH:  cpu time      0.0848: real time      0.0852
       DOS:  cpu time      0.0009: real time      0.0009
    CHARGE:  cpu time      0.1538: real time      0.1544
    MIXING:  cpu time      0.0012: real time      0.0012
    --------------------------------------------
      LOOP:  cpu time      3.3254: real time      3.3419

 eigenvalue-minimisations  :  3272
 total energy-change (2. order) : 0.1605277E+02  (-0.1189427E+01)
 number of electron     401.9999980 magnetization 
 augmentation part      146.9286757 magnetization 

 DIPCOR: dipole corrections for dipol
 direction  3 min pos   222,
 dipolmoment           0.000000      0.000000     -0.156638 electrons x Angstroem
 Tr[quadrupol]     -4991.347397

 energy correction for charged system         0.000000 eV
 dipol+quadrupol energy correction           -0.001426 eV
 added-field ion interaction         -5.470590 eV  (added to PSCEN)


 Broyden mixing:
  rms(total) = 0.11340E+01    rms(broyden)= 0.11338E+01
  rms(prec ) = 0.13106E+01
  weight for this iteration     100.00

 eigenvalues of (default mixing * dielectric matrix)
  average eigenvalue GAMMA=   0.9941
  2.3180  0.9201  0.4994  0.2391

 Free energy of the ion-electron system (eV)
  ---------------------------------------------------
  alpha Z        PSCENC =       985.16231216
  Ewald energy   TEWEN  =    112507.81841367
  -Hartree energ DENC   =   -147316.11486730
  -exchange      EXHF   =         0.00000000
  -V(xc)+E(xc)   XCENC  =       557.53021481
  PAW double counting   =     36758.45002754   -36019.03707176
  entropy T*S    EENTRO =        -0.01535198
  eigenvalues    EBANDS =     -1362.99989819
  atomic energy  EATOM  =     33771.16187166
  Solvation  Ediel_sol  =         0.00000000
  ---------------------------------------------------
  free energy    TOTEN  =      -118.04434939 eV

  energy without entropy =     -118.02899741  energy(sigma->0) =     -118.03923206


--------------------------------------------------------------------------------------------------------




--------------------------------------- Iteration      1(  10)  ---------------------------------------


    POTLOK:  cpu time      0.0439: real time      0.0441
    SETDIJ:  cpu time      0.0101: real time      0.0102
    EDDIAG:  cpu time      0.5822: real time      0.5848
  RMM-DIIS:  cpu time      2.4646: real time      2.4770
    ORTHCH:  cpu time      0.0867: real time      0.0871
       DOS:  cpu time      0.0010: real time      0.0010
    CHARGE:  cpu time      0.1530: real time      0.1536
    MIXING:  cpu time      0.0012: real time      0.0012
    --------------------------------------------
      LOOP:  cpu time      3.3427: real time      3.3589

 eigenvalue-minimisations  :  3298
 total energy-change (2. order) : 0.2859322E+01  (-0.6046776E+00)
 number of electron     401.9999979 magnetization 
 augmentation part      146.0868169 magnetization 

 DIPCOR: dipole corrections for dipol
 direction  3 min pos   225,
 dipolmoment           0.000000      0.000000      0.037706 electrons x Angstroem
 Tr[quadrupol]     -4988.388288

 energy correction for charged system         0.000000 eV
 dipol+quadrupol energy correction           -0.000083 eV
 added-field ion interaction          1.699997 eV  (added to PSCEN)


 Broyden mixing:
  rms(total) = 0.40969E+00    rms(broyden)= 0.40922E+00
  rms(prec ) = 0.44657E+00
  weight for this iteration     100.00

 eigenvalues of (default mixing * dielectric matrix)
  average eigenvalue GAMMA=   0.9723
  2.3337  1.2592  0.5138  0.5138  0.2406

 Free energy of the ion-electron system (eV)
  ---------------------------------------------------
  alpha Z        PSCENC =       992.33424244
  Ewald energy   TEWEN  =    112507.81841367
  -Hartree energ DENC   =   -147298.90596085
  -exchange      EXHF   =         0.00000000
  -V(xc)+E(xc)   XCENC  =       560.20689830
  PAW double counting   =     36787.17546441   -36042.58354340
  entropy T*S    EENTRO =        -0.02308160
  eigenvalues    EBANDS =     -1392.36933162
  atomic energy  EATOM  =     33771.16187166
  Solvation  Ediel_sol  =         0.00000000
  ---------------------------------------------------
  free energy    TOTEN  =      -115.18502700 eV

  energy without entropy =     -115.16194540  energy(sigma->0) =     -115.17733314


--------------------------------------------------------------------------------------------------------




--------------------------------------- Iteration      1(  11)  ---------------------------------------


    POTLOK:  cpu time      0.0436: real time      0.0438
    SETDIJ:  cpu time      0.0105: real time      0.0106
    EDDIAG:  cpu time      0.5829: real time      0.6031
  RMM-DIIS:  cpu time      2.4486: real time      2.4612
    ORTHCH:  cpu time      0.0866: real time      0.0869
       DOS:  cpu time      0.0010: real time      0.0010
    CHARGE:  cpu time      0.1545: real time      0.1551
    MIXING:  cpu time      0.0012: real time      0.0012
    --------------------------------------------
      LOOP:  cpu time      3.3290: real time      3.3630

 eigenvalue-minimisations  :  3263
 total energy-change (2. order) :-0.5133241E-01  (-0.1204423E+00)
 number of electron     401.9999979 magnetization 
 augmentation part      145.5672040 magnetization 

 DIPCOR: dipole corrections for dipol
 direction  3 min pos   226,
 dipolmoment           0.000000      0.000000      0.118535 electrons x Angstroem
 Tr[quadrupol]     -4988.799954

 energy correction for charged system         0.000000 eV
 dipol+quadrupol energy correction           -0.000817 eV
 added-field ion interaction          5.745706 eV  (added to PSCEN)


 Broyden mixing:
  rms(total) = 0.54128E+00    rms(broyden)= 0.54088E+00
  rms(prec ) = 0.59025E+00
  weight for this iteration     100.00

 eigenvalues of (default mixing * dielectric matrix)
  average eigenvalue GAMMA=   0.9803
  2.3996  1.0300  0.8717  0.8717  0.4678  0.2411

 Free energy of the ion-electron system (eV)
  ---------------------------------------------------
  alpha Z        PSCENC =       996.37921787
  Ewald energy   TEWEN  =    112507.81841367
  -Hartree energ DENC   =   -147330.25473703
  -exchange      EXHF   =         0.00000000
  -V(xc)+E(xc)   XCENC  =       561.23975509
  PAW double counting   =     36827.01966687   -36080.44443881
  entropy T*S    EENTRO =        -0.02358825
  eigenvalues    EBANDS =     -1368.13252047
  atomic energy  EATOM  =     33771.16187166
  Solvation  Ediel_sol  =         0.00000000
  ---------------------------------------------------
  free energy    TOTEN  =      -115.23635942 eV

  energy without entropy =     -115.21277116  energy(sigma->0) =     -115.22849666


--------------------------------------------------------------------------------------------------------




--------------------------------------- Iteration      1(  12)  ---------------------------------------


    POTLOK:  cpu time      0.0438: real time      0.0440
    SETDIJ:  cpu time      0.0110: real time      0.0110
    EDDIAG:  cpu time      0.5835: real time      0.5861
  RMM-DIIS:  cpu time      2.4318: real time      2.4444
    ORTHCH:  cpu time      0.0886: real time      0.0890
       DOS:  cpu time      0.0009: real time      0.0009
    CHARGE:  cpu time      0.1535: real time      0.1540
    MIXING:  cpu time      0.0013: real time      0.0013
    --------------------------------------------
      LOOP:  cpu time      3.3143: real time      3.3307

 eigenvalue-minimisations  :  3241
 total energy-change (2. order) : 0.1133953E+00  (-0.6509506E-01)
 number of electron     401.9999979 magnetization 
 augmentation part      145.8154700 magnetization 

 DIPCOR: dipole corrections for dipol
 direction  3 min pos   225,
 dipolmoment           0.000000      0.000000      0.117377 electrons x Angstroem
 Tr[quadrupol]     -4989.884188

 energy correction for charged system         0.000000 eV
 dipol+quadrupol energy correction           -0.000801 eV
 added-field ion interaction          5.292010 eV  (added to PSCEN)


 Broyden mixing:
  rms(total) = 0.20662E+00    rms(broyden)= 0.20589E+00
  rms(prec ) = 0.25073E+00
  weight for this iteration     100.00

 eigenvalues of (default mixing * dielectric matrix)
  average eigenvalue GAMMA=   0.9312
  2.3338  1.1572  1.1572  0.2411  0.6026  0.6026  0.4238

 Free energy of the ion-electron system (eV)
  ---------------------------------------------------
  alpha Z        PSCENC =       995.92553737
  Ewald energy   TEWEN  =    112507.81841367
  -Hartree energ DENC   =   -147343.82623461
  -exchange      EXHF   =         0.00000000
  -V(xc)+E(xc)   XCENC  =       560.55922465
  PAW double counting   =     36801.45962187   -36055.64427944
  entropy T*S    EENTRO =        -0.00816886
  eigenvalues    EBANDS =     -1352.56895041
  atomic energy  EATOM  =     33771.16187166
  Solvation  Ediel_sol  =         0.00000000
  ---------------------------------------------------
  free energy    TOTEN  =      -115.12296411 eV

  energy without entropy =     -115.11479525  energy(sigma->0) =     -115.12024115


--------------------------------------------------------------------------------------------------------




--------------------------------------- Iteration      1(  13)  ---------------------------------------


    POTLOK:  cpu time      0.0436: real time      0.0438
    SETDIJ:  cpu time      0.0112: real time      0.0112
    EDDIAG:  cpu time      0.5824: real time      0.5850
  RMM-DIIS:  cpu time      2.3665: real time      2.3790
    ORTHCH:  cpu time      0.0857: real time      0.0861
       DOS:  cpu time      0.0010: real time      0.0010
    CHARGE:  cpu time      0.1538: real time      0.1545
    MIXING:  cpu time      0.0013: real time      0.0013
    --------------------------------------------
      LOOP:  cpu time      3.2456: real time      3.2619

 eigenvalue-minimisations  :  3163
 total energy-change (2. order) : 0.6654152E-01  (-0.4813695E-02)
 number of electron     401.9999979 magnetization 
 augmentation part      145.7723490 magnetization 

 DIPCOR: dipole corrections for dipol
 direction  3 min pos   225,
 dipolmoment           0.000000      0.000000      0.112292 electrons x Angstroem
 Tr[quadrupol]     -4989.612355

 energy correction for charged system         0.000000 eV
 dipol+quadrupol energy correction           -0.000733 eV
 added-field ion interaction          5.062778 eV  (added to PSCEN)


 Broyden mixing:
  rms(total) = 0.16838E+00    rms(broyden)= 0.16835E+00
  rms(prec ) = 0.20295E+00
  weight for this iteration     100.00

 eigenvalues of (default mixing * dielectric matrix)
  average eigenvalue GAMMA=   1.0135
  2.2277  1.5849  1.5849  0.2410  0.7353  0.4654  0.6342  0.6342

 Free energy of the ion-electron system (eV)
  ---------------------------------------------------
  alpha Z        PSCENC =       995.69637281
  Ewald energy   TEWEN  =    112507.81841367
  -Hartree energ DENC   =   -147340.50530180
  -exchange      EXHF   =         0.00000000
  -V(xc)+E(xc)   XCENC  =       560.69314152
  PAW double counting   =     36783.56858618   -36037.05625946
  entropy T*S    EENTRO =        -0.01016730
  eigenvalues    EBANDS =     -1356.42307985
  atomic energy  EATOM  =     33771.16187166
  Solvation  Ediel_sol  =         0.00000000
  ---------------------------------------------------
  free energy    TOTEN  =      -115.05642258 eV

  energy without entropy =     -115.04625528  energy(sigma->0) =     -115.05303348


--------------------------------------------------------------------------------------------------------




--------------------------------------- Iteration      1(  14)  ---------------------------------------


    POTLOK:  cpu time      0.0443: real time      0.0445
    SETDIJ:  cpu time      0.0113: real time      0.0113
    EDDIAG:  cpu time      0.5821: real time      0.5847
  RMM-DIIS:  cpu time      2.4321: real time      2.4449
    ORTHCH:  cpu time      0.0874: real time      0.0878
       DOS:  cpu time      0.0010: real time      0.0010
    CHARGE:  cpu time      0.1537: real time      0.1543
    MIXING:  cpu time      0.0013: real time      0.0013
    --------------------------------------------
      LOOP:  cpu time      3.3133: real time      3.3298

 eigenvalue-minimisations  :  3250
 total energy-change (2. order) : 0.6382238E-01  (-0.3255381E-02)
 number of electron     401.9999979 magnetization 
 augmentation part      145.7018468 magnetization 

 DIPCOR: dipole corrections for dipol
 direction  3 min pos   225,
 dipolmoment           0.000000      0.000000      0.114217 electrons x Angstroem
 Tr[quadrupol]     -4989.349861

 energy correction for charged system         0.000000 eV
 dipol+quadrupol energy correction           -0.000758 eV
 added-field ion interaction          5.149536 eV  (added to PSCEN)


 Broyden mixing:
  rms(total) = 0.71749E-01    rms(broyden)= 0.71690E-01
  rms(prec ) = 0.84765E-01
  weight for this iteration     100.00

 eigenvalues of (default mixing * dielectric matrix)
  average eigenvalue GAMMA=   1.0617
  2.2225  2.2225  1.3966  0.2410  0.9496  0.6789  0.6789  0.4601  0.7047

 Free energy of the ion-electron system (eV)
  ---------------------------------------------------
  alpha Z        PSCENC =       995.78310575
  Ewald energy   TEWEN  =    112507.81841367
  -Hartree energ DENC   =   -147338.08603472
  -exchange      EXHF   =         0.00000000
  -V(xc)+E(xc)   XCENC  =       560.89264449
  PAW double counting   =     36767.87581929   -36020.46864058
  entropy T*S    EENTRO =        -0.02177568
  eigenvalues    EBANDS =     -1359.94800408
  atomic energy  EATOM  =     33771.16187166
  Solvation  Ediel_sol  =         0.00000000
  ---------------------------------------------------
  free energy    TOTEN  =      -114.99260020 eV

  energy without entropy =     -114.97082452  energy(sigma->0) =     -114.98534164


--------------------------------------------------------------------------------------------------------




--------------------------------------- Iteration      1(  15)  ---------------------------------------


    POTLOK:  cpu time      0.0434: real time      0.0436
    SETDIJ:  cpu time      0.0115: real time      0.0116
    EDDIAG:  cpu time      0.5832: real time      0.5858
  RMM-DIIS:  cpu time      2.5135: real time      2.5267
    ORTHCH:  cpu time      0.0881: real time      0.0884
       DOS:  cpu time      0.0010: real time      0.0010
    CHARGE:  cpu time      0.1626: real time      0.1632
    MIXING:  cpu time      0.0014: real time      0.0014
    --------------------------------------------
      LOOP:  cpu time      3.4045: real time      3.4216

 eigenvalue-minimisations  :  3357
 total energy-change (2. order) : 0.6934191E-02  (-0.1778826E-02)
 number of electron     401.9999979 magnetization 
 augmentation part      145.6492694 magnetization 

 DIPCOR: dipole corrections for dipol
 direction  3 min pos   226,
 dipolmoment           0.000000      0.000000      0.123417 electrons x Angstroem
 Tr[quadrupol]     -4989.307888

 energy correction for charged system         0.000000 eV
 dipol+quadrupol energy correction           -0.000885 eV
 added-field ion interaction          5.982318 eV  (added to PSCEN)


 Broyden mixing:
  rms(total) = 0.18419E-01    rms(broyden)= 0.18122E-01
  rms(prec ) = 0.19783E-01
  weight for this iteration     100.00

 eigenvalues of (default mixing * dielectric matrix)
  average eigenvalue GAMMA=   1.1098
  2.4856  1.8622  1.8622  1.0454  1.0454  0.2410  0.6783  0.6783  0.4609  0.7389

 Free energy of the ion-electron system (eV)
  ---------------------------------------------------
  alpha Z        PSCENC =       996.61576119
  Ewald energy   TEWEN  =    112507.81841367
  -Hartree energ DENC   =   -147338.66490470
  -exchange      EXHF   =         0.00000000
  -V(xc)+E(xc)   XCENC  =       561.00370267
  PAW double counting   =     36770.91212902   -36023.13817702
  entropy T*S    EENTRO =        -0.02785587
  eigenvalues    EBANDS =     -1360.66660663
  atomic energy  EATOM  =     33771.16187166
  Solvation  Ediel_sol  =         0.00000000
  ---------------------------------------------------
  free energy    TOTEN  =      -114.98566601 eV

  energy without entropy =     -114.95781014  energy(sigma->0) =     -114.97638072


--------------------------------------------------------------------------------------------------------




--------------------------------------- Iteration      1(  16)  ---------------------------------------


    POTLOK:  cpu time      0.0439: real time      0.0441
    SETDIJ:  cpu time      0.0118: real time      0.0118
    EDDIAG:  cpu time      0.5833: real time      0.5859
  RMM-DIIS:  cpu time      2.4179: real time      2.4305
    ORTHCH:  cpu time      0.0888: real time      0.0892
       DOS:  cpu time      0.0010: real time      0.0010
    CHARGE:  cpu time      0.1532: real time      0.1538
    MIXING:  cpu time      0.0014: real time      0.0014
    --------------------------------------------
      LOOP:  cpu time      3.3014: real time      3.3177

 eigenvalue-minimisations  :  3213
 total energy-change (2. order) :-0.2146128E-02  (-0.2178251E-03)
 number of electron     401.9999979 magnetization 
 augmentation part      145.6566769 magnetization 

 DIPCOR: dipole corrections for dipol
 direction  3 min pos   227,
 dipolmoment           0.000000      0.000000      0.117631 electrons x Angstroem
 Tr[quadrupol]     -4989.360499

 energy correction for charged system         0.000000 eV
 dipol+quadrupol energy correction           -0.000804 eV
 added-field ion interaction          6.100303 eV  (added to PSCEN)


 Broyden mixing:
  rms(total) = 0.22382E-01    rms(broyden)= 0.22382E-01
  rms(prec ) = 0.26111E-01
  weight for this iteration     100.00

 eigenvalues of (default mixing * dielectric matrix)
  average eigenvalue GAMMA=   1.1929
  2.9487  2.1690  2.1690  1.3403  0.2410  0.8631  0.8631  0.6842  0.6842  0.4605
  0.6987

 Free energy of the ion-electron system (eV)
  ---------------------------------------------------
  alpha Z        PSCENC =       996.73382675
  Ewald energy   TEWEN  =    112507.81841367
  -Hartree energ DENC   =   -147339.22884909
  -exchange      EXHF   =         0.00000000
  -V(xc)+E(xc)   XCENC  =       560.98574748
  PAW double counting   =     36775.46663834   -36027.67509034
  entropy T*S    EENTRO =        -0.02604873
  eigenvalues    EBANDS =     -1360.22432187
  atomic energy  EATOM  =     33771.16187166
  Solvation  Ediel_sol  =         0.00000000
  ---------------------------------------------------
  free energy    TOTEN  =      -114.98781214 eV

  energy without entropy =     -114.96176341  energy(sigma->0) =     -114.97912923


--------------------------------------------------------------------------------------------------------




--------------------------------------- Iteration      1(  17)  ---------------------------------------


    POTLOK:  cpu time      0.0439: real time      0.0441
    SETDIJ:  cpu time      0.0115: real time      0.0116
    EDDIAG:  cpu time      0.5808: real time      0.5834
  RMM-DIIS:  cpu time      2.4501: real time      2.4626
    ORTHCH:  cpu time      0.0875: real time      0.0879
       DOS:  cpu time      0.0010: real time      0.0010
    CHARGE:  cpu time      0.1531: real time      0.1537
    MIXING:  cpu time      0.0015: real time      0.0015
    --------------------------------------------
      LOOP:  cpu time      3.3294: real time      3.3457

 eigenvalue-minimisations  :  3262
 total energy-change (2. order) :-0.4286686E-03  (-0.1915744E-03)
 number of electron     401.9999979 magnetization 
 augmentation part      145.6419831 magnetization 

 DIPCOR: dipole corrections for dipol
 direction  3 min pos   228,
 dipolmoment           0.000000      0.000000      0.118950 electrons x Angstroem
 Tr[quadrupol]     -4989.360419

 energy correction for charged system         0.000000 eV
 dipol+quadrupol energy correction           -0.000823 eV
 added-field ion interaction          6.571560 eV  (added to PSCEN)


 Broyden mixing:
  rms(total) = 0.58722E-02    rms(broyden)= 0.57921E-02
  rms(prec ) = 0.63642E-02
  weight for this iteration     100.00

 eigenvalues of (default mixing * dielectric matrix)
  average eigenvalue GAMMA=   1.1432
  2.7848  2.1681  2.1681  1.3367  0.2410  0.9371  0.9371  0.6825  0.6825  0.7551
  0.4603  0.5651

 Free energy of the ion-electron system (eV)
  ---------------------------------------------------
  alpha Z        PSCENC =       997.20506543
  Ewald energy   TEWEN  =    112507.81841367
  -Hartree energ DENC   =   -147339.15146562
  -exchange      EXHF   =         0.00000000
  -V(xc)+E(xc)   XCENC  =       561.01843451
  PAW double counting   =     36779.43610257   -36031.54411788
  entropy T*S    EENTRO =        -0.02793643
  eigenvalues    EBANDS =     -1360.90460871
  atomic energy  EATOM  =     33771.16187166
  Solvation  Ediel_sol  =         0.00000000
  ---------------------------------------------------
  free energy    TOTEN  =      -114.98824081 eV

  energy without entropy =     -114.96030437  energy(sigma->0) =     -114.97892866


--------------------------------------------------------------------------------------------------------




--------------------------------------- Iteration      1(  18)  ---------------------------------------


    POTLOK:  cpu time      0.0441: real time      0.0443
    SETDIJ:  cpu time      0.0115: real time      0.0116
    EDDIAG:  cpu time      0.5794: real time      0.5893
  RMM-DIIS:  cpu time      1.7547: real time      1.7641
    ORTHCH:  cpu time      0.0869: real time      0.0873
       DOS:  cpu time      0.0009: real time      0.0009
    CHARGE:  cpu time      0.1540: real time      0.1545
    MIXING:  cpu time      0.0016: real time      0.0016
    --------------------------------------------
      LOOP:  cpu time      2.6331: real time      2.6537

 eigenvalue-minimisations  :  2229
 total energy-change (2. order) :-0.2214053E-03  (-0.2985335E-04)
 number of electron     401.9999979 magnetization 
 augmentation part      145.6429813 magnetization 

 DIPCOR: dipole corrections for dipol
 direction  3 min pos   229,
 dipolmoment           0.000000      0.000000      0.120909 electrons x Angstroem
 Tr[quadrupol]     -4989.377725

 energy correction for charged system         0.000000 eV
 dipol+quadrupol energy correction           -0.000850 eV
 added-field ion interaction          7.089269 eV  (added to PSCEN)


 Broyden mixing:
  rms(total) = 0.47639E-02    rms(broyden)= 0.47595E-02
  rms(prec ) = 0.55515E-02
  weight for this iteration     100.00

 eigenvalues of (default mixing * dielectric matrix)
  average eigenvalue GAMMA=   1.2182
  3.2715  2.0849  2.0849  1.8454  1.1297  1.1297  0.2410  0.6831  0.6831  0.4605
  0.7841  0.7841  0.6545

 Free energy of the ion-electron system (eV)
  ---------------------------------------------------
  alpha Z        PSCENC =       997.72274709
  Ewald energy   TEWEN  =    112507.81841367
  -Hartree energ DENC   =   -147338.92804891
  -exchange      EXHF   =         0.00000000
  -V(xc)+E(xc)   XCENC  =       561.01592178
  PAW double counting   =     36778.73295488   -36030.84318539
  entropy T*S    EENTRO =        -0.02794296
  eigenvalues    EBANDS =     -1361.64119403
  atomic energy  EATOM  =     33771.16187166
  Solvation  Ediel_sol  =         0.00000000
  ---------------------------------------------------
  free energy    TOTEN  =      -114.98846221 eV

  energy without entropy =     -114.96051925  energy(sigma->0) =     -114.97914789
[...]
    151      -2.1025      2.00000
    152      -2.0647      2.00000
    153      -2.0527      2.00000
    154      -2.0041      2.00000
    155      -1.9786      2.00000
    156      -1.9563      2.00000
    157      -1.9274      2.00000
    158      -1.8914      2.00000
    159      -1.8803      2.00000
    160      -1.8301      2.00000
    161      -1.7992      2.00000
    162      -1.7484      2.00000
    163      -1.7304      2.00000
    164      -1.6998      2.00000
    165      -1.6851      2.00000
    166      -1.6686      2.00000
    167      -1.6327      2.00000
    168      -1.6059      2.00000
    169      -1.5922      2.00000
    170      -1.5886      2.00000
    171      -1.5766      2.00000
    172      -1.5655      2.00000
    173      -1.5543      2.00000
    174      -1.5335      2.00000
    175      -1.5266      2.00000
    176      -1.5212      2.00000
    177      -1.5008      2.00000
    178      -1.4836      2.00000
    179      -1.4199      2.00000
    180      -1.4081      2.00000
    181      -1.3917      2.00000
    182      -1.3886      2.00000
    183      -1.3642      2.00000
    184      -1.3371      2.00000
    185      -1.3295      2.00000
    186      -1.2699      2.00000
    187      -1.2482      2.00000
    188      -1.2151      2.00000
    189      -1.1007      2.00000
    190      -0.9733      2.00000
    191      -0.9024      2.00000
    192      -0.8296      2.00000
    193      -0.7008      2.00000
    194      -0.5568      2.00000
    195      -0.4381      2.00000
    196      -0.1811      2.00000
    197       0.0499      2.00000
    198       0.3125      2.07031
    199       0.3900      1.62907
    200       0.4511      0.66163
    201       0.4901      0.16489
    202       0.7336     -0.00016
    203       0.7977     -0.00000
    204       0.9436     -0.00000
    205       1.0013     -0.00000
    206       1.0634     -0.00000
    207       1.2557     -0.00000
    208       1.4496     -0.00000
    209       1.9380     -0.00000
    210       2.1068     -0.00000
    211       2.1645     -0.00000
    212       2.2200     -0.00000
    213       2.3678     -0.00000
    214       2.4262     -0.00000
    215       2.6751      0.00000
    216       2.7963      0.00000
    217       2.8274      0.00000
    218       2.8808      0.00000
    219       3.0278      0.00000
    220       3.3462      0.00000
    221       3.4272      0.00000
    222       3.6824      0.00000
    223       3.9744      0.00000
    224       4.0653      0.00000
    225       4.1441      0.00000
    226       4.3361      0.00000
    227       4.5054      0.00000
    228       4.7340      0.00000
    229       4.8106      0.00000
    230       5.3509      0.00000
    231       5.4172      0.00000
    232       5.4612      0.00000
    233       5.7065      0.00000
    234       5.7884      0.00000
    235       5.8687      0.00000
    236       5.8772      0.00000
    237       5.9200      0.00000
    238       6.0019      0.00000
    239       6.0389      0.00000
    240       6.1148      0.00000
    241       6.6254      0.00000
    242       6.6960      0.00000


--------------------------------------------------------------------------------------------------------


 soft charge-density along one line, spin component           1
         0         1         2         3         4         5         6         7         8         9
 total charge-density along one line

 pseudopotential strength for first ion, spin component:           1
 -7.437   0.001  -0.001  -0.004  -0.000  -7.597   0.001  -0.001
  0.001  -7.404   0.000   0.001  -0.004   0.001  -7.565   0.000
 -0.001   0.000  -7.400   0.001  -0.000  -0.001   0.000  -7.562
 -0.004   0.001   0.001  -7.403   0.001  -0.003   0.001   0.001
 -0.000  -0.004  -0.000   0.001  -7.437  -0.000  -0.004  -0.000
 -7.597   0.001  -0.001  -0.003  -0.000  -7.741   0.001  -0.001
  0.001  -7.565   0.000   0.001  -0.004   0.001  -7.710   0.000
 -0.001   0.000  -7.562   0.001  -0.000  -0.001   0.000  -7.707
 -0.003   0.001   0.001  -7.564   0.001  -0.003   0.001   0.001
 -0.000  -0.004  -0.000   0.001  -7.597  -0.000  -0.004  -0.000
 -0.000  -0.000  -0.014  -0.000  -0.000  -0.000  -0.000  -0.014
 -0.001  -0.000  -0.020  -0.000  -0.000  -0.001  -0.000  -0.020
  0.000  -0.004  -0.000  -0.000   0.000   0.000  -0.003  -0.000
 -0.000   0.000  -0.006   0.000  -0.000   0.000   0.000  -0.005
  0.000  -0.000  -0.000  -0.004   0.000   0.000   0.000  -0.000
  0.000  -0.003  -0.000   0.000   0.000   0.000  -0.003  -0.000
  0.000   0.000  -0.006   0.000   0.000   0.000   0.000  -0.005
  0.000   0.000  -0.000  -0.003   0.000   0.000   0.000  -0.000
 total augmentation occupancy for first ion, spin component:           1
  4.067   0.005  -0.001   0.037  -0.011  -2.051  -0.004   0.000  -0.088   0.008   0.009   0.001  -0.002   0.002  -0.031   0.000
  0.005   3.654   0.010   0.007   0.032  -0.004  -1.462  -0.007  -0.005  -0.084   0.000  -0.001  -0.144  -0.001  -0.002   0.004
 -0.001   0.010   4.184   0.016   0.000   0.000  -0.007  -2.024  -0.012  -0.000   0.586  -0.056  -0.002  -0.240  -0.002  -0.000
  0.037   0.007   0.016   3.665   0.007  -0.087  -0.005  -0.012  -1.471  -0.005   0.002  -0.002  -0.003  -0.003  -0.148   0.000
 -0.011   0.032   0.000   0.007   4.085   0.008  -0.084  -0.000  -0.005  -2.063   0.006   0.001  -0.029   0.001  -0.002   0.001
 -2.051  -0.004   0.000  -0.087   0.008   1.948   0.003  -0.000   0.124  -0.006  -0.006  -0.001   0.001  -0.002   0.030  -0.000
 -0.004  -1.462  -0.007  -0.005  -0.084   0.003   1.231   0.005   0.004   0.122  -0.000   0.000   0.139   0.001   0.002  -0.006
  0.000  -0.007  -2.024  -0.012  -0.000  -0.000   0.005   1.812   0.008   0.000  -0.530   0.074   0.001   0.247   0.002  -0.000
 -0.088  -0.005  -0.012  -1.471  -0.005   0.124   0.004   0.008   1.237   0.004  -0.001   0.000   0.002   0.002   0.141  -0.000
  0.008  -0.084  -0.000  -0.005  -2.063  -0.006   0.122   0.000   0.004   1.957  -0.004  -0.001   0.029  -0.001   0.001  -0.001
  0.009   0.000   0.586   0.002   0.006  -0.006  -0.000  -0.530  -0.001  -0.004   2.209  -0.485  -0.000   0.133  -0.001   0.000
  0.001  -0.001  -0.056  -0.002   0.001  -0.001   0.000   0.074   0.000  -0.001  -0.485   0.156  -0.000  -0.059  -0.000  -0.000
 -0.002  -0.144  -0.002  -0.003  -0.029   0.001   0.139   0.001   0.002   0.029  -0.000  -0.000   0.149   0.000   0.001  -0.005
  0.002  -0.001  -0.240  -0.003   0.001  -0.002   0.001   0.247   0.002  -0.001   0.133  -0.059   0.000   0.087   0.000  -0.000
 -0.031  -0.002  -0.002  -0.148  -0.002   0.030   0.002   0.002   0.141   0.001  -0.001  -0.000   0.001   0.000   0.150  -0.000
  0.000   0.004  -0.000   0.000   0.001  -0.000  -0.006  -0.000  -0.000  -0.001   0.000  -0.000  -0.005  -0.000  -0.000   0.000
 -0.000   0.000   0.001   0.000  -0.000   0.000  -0.000  -0.007  -0.000   0.000  -0.008   0.003  -0.000  -0.003  -0.000   0.000
  0.001   0.000  -0.000   0.004   0.000  -0.001  -0.000  -0.000  -0.006  -0.000   0.000  -0.000  -0.000  -0.000  -0.005   0.000


------------------------ aborting loop because EDIFF is reached ----------------------------------------


    CHARGE:  cpu time      0.1550: real time      0.1556
    FORLOC:  cpu time      0.0062: real time      0.0062
    FORNL :  cpu time      0.6973: real time      0.7004
    STRESS:  cpu time      2.0859: real time      2.0954
    FORCOR:  cpu time      0.0498: real time      0.0500
    FORHAR:  cpu time      0.0143: real time      0.0143
    MIXING:  cpu time      0.0017: real time      0.0017
    OFIELD:  cpu time      0.0000: real time      0.0000

  FORCE on cell =-STRESS in cart. coord.  units (eV):
  Direction    XX          YY          ZZ          XY          YZ          ZX
  --------------------------------------------------------------------------------------
  Alpha Z   990.63433   990.63433   990.63433
  Ewald  135641.89244135639.29229************    -0.32531    -6.70058    -0.70034
  Hartree144262.82812144259.96186************    -0.10284    -1.59112    -0.28986
  E(xc)   -1807.32863 -1807.32899 -1814.77164    -0.00123    -0.01741    -0.00221
  Local  ************************292692.25842     0.39912     7.62575     0.92557
  n-local   -75.58903   -76.19001   -54.09920     0.00363    -0.01867     0.00815
  augment  2439.88361  2439.96291  2457.41051     0.00660     0.18503     0.01595
  Kinetic  5627.02639  5627.13832  5686.69727     0.01770     0.31417     0.03970
  Fock        0.00000     0.00000     0.00000     0.00000     0.00000     0.00000
  -------------------------------------------------------------------------------------
  Total     -16.49251   -16.75341     0.22171    -0.00234    -0.20283    -0.00304
  in kB     -16.97831   -17.24690     0.22824    -0.00240    -0.20880    -0.00313
  external pressure =      -11.33 kB  Pullay stress =        0.00 kB


 VOLUME and BASIS-vectors are now :
 -----------------------------------------------------------------------------
  energy-cutoff  :      400.00
  volume of cell :     1556.33
      direct lattice vectors                 reciprocal lattice vectors
     8.803479426  0.000000000  0.000000000     0.113591451 -0.065582055  0.000000000
     4.401739713  7.624036824  0.000000000     0.000000000  0.131164109  0.000000000
     0.000000000  0.000000000 23.188010851     0.000000000  0.000000000  0.043125735

  length of vectors
     8.803479426  8.803479426 23.188010851     0.131164109  0.131164109  0.043125735


 FORCES acting on ions
    electron-ion (+dipol)            ewald-force                    non-local-force                 convergence-correction
 -----------------------------------------------------------------------------------------------
   -.473E+00 -.315E+00 0.259E+04   0.406E+00 0.275E+00 -.259E+04   0.446E-01 0.262E-01 -.334E+00   0.211E-02 0.101E-02 0.438E-01
   0.618E-02 -.827E+00 0.259E+04   -.621E-02 0.896E+00 -.259E+04   -.105E-03 -.507E-01 -.337E+00   -.121E-04 0.561E-03 0.438E-01
   0.467E+00 -.318E+00 0.259E+04   -.400E+00 0.277E+00 -.259E+04   -.451E-01 0.268E-01 -.336E+00   -.209E-02 0.977E-03 0.438E-01
   -.690E+00 0.363E+00 0.259E+04   0.736E+00 -.404E+00 -.259E+04   -.350E-01 0.292E-01 -.323E+00   0.102E-02 -.387E-03 0.441E-01
   0.691E+00 0.357E+00 0.259E+04   -.737E+00 -.397E+00 -.259E+04   0.358E-01 0.292E-01 -.324E+00   -.102E-02 -.387E-03 0.441E-01
   -.180E-02 0.468E+00 0.259E+04   0.917E-03 -.516E+00 -.259E+04   0.818E-03 0.387E-01 -.326E+00   0.130E-04 0.763E-03 0.455E-01
   -.543E-02 0.620E+00 0.259E+04   0.528E-02 -.534E+00 -.259E+04   0.648E-04 -.590E-01 -.362E+00   -.128E-04 -.242E-02 0.434E-01
   0.424E+00 -.188E+00 0.259E+04   -.473E+00 0.207E+00 -.259E+04   0.382E-01 -.174E-01 -.317E+00   0.814E-03 -.675E-04 0.454E-01
   -.419E+00 -.184E+00 0.259E+04   0.468E+00 0.203E+00 -.259E+04   -.381E-01 -.174E-01 -.316E+00   -.782E-03 -.912E-04 0.454E-01
   -.520E+01 -.375E+01 0.897E+03   0.513E+01 0.369E+01 -.897E+03   0.853E-01 0.783E-01 -.120E+00   0.104E-02 0.136E-03 0.163E+00
   0.526E+01 -.378E+01 0.897E+03   -.518E+01 0.372E+01 -.897E+03   -.828E-01 0.784E-01 -.120E+00   -.103E-02 0.104E-03 0.163E+00
   -.294E-01 -.412E+01 0.900E+03   0.300E-01 0.415E+01 -.900E+03   0.103E-03 0.437E-01 -.390E+00   -.185E-04 -.254E-03 0.161E+00
   -.396E-01 0.535E+01 0.896E+03   0.385E-01 -.528E+01 -.896E+03   0.171E-02 -.742E-01 -.855E-01   -.152E-04 -.686E-03 0.163E+00
   0.559E+01 0.336E+01 0.905E+03   -.560E+01 -.337E+01 -.904E+03   -.189E-01 0.178E-02 -.433E+00   -.605E-03 -.105E-03 0.162E+00
   -.564E+01 0.339E+01 0.905E+03   0.565E+01 -.340E+01 -.904E+03   0.206E-01 0.135E-02 -.434E+00   0.618E-03 -.686E-04 0.162E+00
   -.308E+01 0.182E+01 0.900E+03   0.312E+01 -.183E+01 -.900E+03   0.211E-01 -.459E-02 -.402E+00   -.832E-04 -.487E-05 0.161E+00
   0.216E-01 -.683E+01 0.906E+03   -.224E-01 0.681E+01 -.905E+03   0.117E-02 0.587E-01 -.447E+00   0.386E-04 0.900E-03 0.162E+00
   0.298E+01 0.181E+01 0.900E+03   -.302E+01 -.183E+01 -.900E+03   -.187E-01 -.448E-02 -.404E+00   0.448E-04 -.667E-05 0.161E+00
   -.297E+00 0.496E+01 -.808E+03   0.701E+00 -.504E+01 0.807E+03   -.409E+00 0.888E-01 0.136E+00   0.704E-02 0.330E-02 0.200E+00
   -.808E-01 -.103E+01 -.865E+03   0.819E-01 0.110E+01 0.864E+03   -.621E-03 -.777E-01 0.826E+00   0.152E-04 -.449E-03 0.212E+00
   0.325E+00 0.467E+01 -.808E+03   -.731E+00 -.476E+01 0.808E+03   0.412E+00 0.909E-01 0.142E+00   -.707E-02 0.326E-02 0.200E+00
   -.482E+01 -.151E+01 -.809E+03   0.512E+01 0.121E+01 0.809E+03   -.299E+00 0.303E+00 0.149E+00   0.680E-03 -.780E-02 0.200E+00
   0.478E+01 -.146E+01 -.810E+03   -.508E+01 0.116E+01 0.809E+03   0.292E+00 0.305E+00 0.156E+00   -.706E-03 -.782E-02 0.200E+00
   0.153E+00 0.149E+00 -.764E+03   -.154E+00 -.136E+00 0.763E+03   -.662E-03 -.156E-01 0.900E+00   0.509E-04 0.144E-03 0.196E+00
   -.156E-01 -.420E+00 -.773E+03   0.161E-01 0.413E+00 0.772E+03   -.147E-02 0.133E-01 0.716E+00   -.421E-04 0.792E-04 0.191E+00
   0.505E+01 -.192E+01 -.806E+03   -.493E+01 0.232E+01 0.806E+03   -.141E+00 -.417E+00 0.132E+00   0.676E-02 0.468E-02 0.200E+00
   -.493E+01 -.197E+01 -.806E+03   0.481E+01 0.238E+01 0.806E+03   0.137E+00 -.418E+00 0.131E+00   -.673E-02 0.468E-02 0.200E+00
   0.130E+02 0.653E+01 -.250E+04   -.137E+02 -.695E+01 0.250E+04   0.666E+00 0.425E+00 0.715E+00   0.159E-01 0.962E-02 0.917E-01
   0.109E+00 0.776E+02 -.249E+04   -.107E+00 -.792E+02 0.249E+04   -.460E-02 0.159E+01 -.369E-01   -.240E-04 0.432E-01 0.965E-01
   -.131E+02 0.692E+01 -.250E+04   0.138E+02 -.733E+01 0.250E+04   -.669E+00 0.410E+00 0.710E+00   -.159E-01 0.963E-02 0.916E-01
   0.649E+02 -.385E+02 -.251E+04   -.663E+02 0.393E+02 0.251E+04   0.146E+01 -.813E+00 -.859E-01   0.379E-01 -.216E-01 0.941E-01
   -.655E+02 -.390E+02 -.251E+04   0.669E+02 0.398E+02 0.251E+04   -.143E+01 -.801E+00 -.101E+00   -.380E-01 -.216E-01 0.938E-01
   -.700E-01 0.173E+02 -.249E+04   0.589E-01 -.171E+02 0.249E+04   0.834E-02 -.170E+00 0.190E+00   -.837E-04 0.199E-02 0.915E-01
   0.158E+00 -.143E+02 -.250E+04   -.154E+00 0.151E+02 0.249E+04   -.431E-02 -.769E+00 0.780E+00   0.814E-06 -.189E-01 0.923E-01
   0.122E+02 -.760E+01 -.250E+04   -.122E+02 0.759E+01 0.250E+04   -.719E-02 -.216E-02 0.212E+00   0.218E-02 -.119E-02 0.900E-01
   -.123E+02 -.766E+01 -.250E+04   0.123E+02 0.766E+01 0.250E+04   0.149E-01 -.609E-02 0.215E+00   -.218E-02 -.112E-02 0.901E-01
   0.560E+00 0.683E-01 -.169E+04   -.634E+00 -.141E+00 0.171E+04   0.698E-01 0.647E-01 -.224E+02   0.118E-03 0.359E-04 -.248E-01
 -----------------------------------------------------------------------------------------------
   -.990E-01 0.187E-01 0.179E+02   -.555E-15 -.640E-13 0.296E-11   0.996E-01 -.120E-01 -.223E+02   -.191E-04 0.117E-03 0.446E+01


 POSITION                                       TOTAL-FORCE (eV/Angst)
 -----------------------------------------------------------------------------------
      0.00000      0.00000      0.00000        -0.019913     -0.013039     -0.094063
      2.93449      0.00000      0.00000        -0.000165      0.019028     -0.072014
      5.86899      0.00000      0.00000         0.019920     -0.013059     -0.093778
      1.46725      2.54135      0.00000         0.011610     -0.012255     -0.075320
      4.40174      2.54135      0.00000        -0.011651     -0.012108     -0.074921
      7.33623      2.54135      0.00000        -0.000072     -0.009113     -0.054533
      2.93449      5.08269      0.00000        -0.000118      0.024155     -0.085151
      5.86899      5.08269      0.00000        -0.010247      0.001039     -0.052836
      8.80348      5.08269      0.00000         0.010107      0.001080     -0.053060
      1.46725      0.84712      2.39600         0.008583      0.017238      0.124868
      4.40174      0.84712      2.39600        -0.008621      0.017323      0.124163
      7.33623      0.84712      2.39600         0.000713      0.073472      0.098288
      2.93449      3.38846      2.39600         0.000563     -0.009068      0.134976
      5.86899      3.38846      2.39600        -0.024818     -0.007732     -0.000520
      8.80348      3.38846      2.39600         0.026136     -0.007895     -0.000832
      4.40174      5.92981      2.39600         0.062534     -0.023870      0.095497
      7.33623      5.92981      2.39600         0.000401      0.042761     -0.016328
     10.27073      5.92981      2.39600        -0.060874     -0.023797      0.095627
      8.82987      1.71623      4.79666         0.002355      0.003513     -0.007618
      2.93504      1.72573      4.85684         0.000484     -0.016985      0.014095
      5.84316      1.71558      4.79652        -0.001447      0.005947     -0.005543
     10.27554      4.22834      4.79714         0.004946     -0.006874     -0.002101
      4.39996      4.22773      4.79724        -0.007254     -0.006485      0.001030
      7.33733      4.25872      4.73049        -0.001688     -0.003142      0.007421
     11.73948      6.78864      4.73850        -0.001000      0.006409      0.006752
      5.89010      6.82165      4.79456        -0.008071     -0.009302     -0.005020
      8.78548      6.82163      4.79435         0.004755     -0.008367     -0.004163
      8.76810      0.00505      7.15498         0.006469      0.011530     -0.001370
      7.33868      7.52638      7.33020        -0.002145     -0.007340      0.004450
      5.90780      0.00600      7.15585        -0.007751      0.007859     -0.002542
     10.11748      2.64272      7.36265         0.040901     -0.004311      0.001037
      4.55370      2.64155      7.36669        -0.027010      0.004343     -0.006410
      7.33574      2.60656      7.13566        -0.002867     -0.022660      0.007773
     11.73918      5.12939      7.14890        -0.000262      0.018633      0.005802
      5.88600      5.11652      7.15180        -0.001739     -0.016199     -0.010297
      8.78761      5.11662      7.15029         0.001152     -0.012305     -0.007990
      2.93312      1.74380      8.44800        -0.003915     -0.008423      0.004628
 -----------------------------------------------------------------------------------
    total drift:                                0.000614      0.006850      0.025659


--------------------------------------------------------------------------------------------------------



  FREE ENERGIE OF THE ION-ELECTRON SYSTEM (eV)
  ---------------------------------------------------
  free  energy   TOTEN  =      -114.98935913 eV

  energy  without entropy=     -114.96151917  energy(sigma->0) =     -114.98007914



--------------------------------------------------------------------------------------------------------


    POTLOK:  cpu time      0.0534: real time      0.0536


--------------------------------------------------------------------------------------------------------


     LOOP+:  cpu time     75.1488: real time     75.5739
 vacuum level on the upper side and lower side of the slab         5.886         5.460
    4ORBIT:  cpu time      0.0000: real time      0.0000

 total amount of memory used by VASP MPI-rank0    61943. kBytes
=======================================================================

   base      :      30000. kBytes
   nonlr-proj:       5464. kBytes
   fftplans  :       4620. kBytes
   grid      :       7634. kBytes
   one-center:         31. kBytes
   wavefun   :      14194. kBytes

  
  
 General timing and accounting informations for this job:
 ========================================================
  
                  Total CPU time used (sec):       78.049
                            User time (sec):       75.895
                          System time (sec):        2.155
                         Elapsed time (sec):       79.294
  
                   Maximum memory used (kb):      336292.
                   Average memory used (kb):          N/A
  
                          Minor page faults:        94079
                          Major page faults:           86
                 Voluntary context switches:         1993
