<?xml version="1.0" encoding="ISO-8859-1"?>
<modeling>
 <generator>
  <i name="program" type="string">vasp </i>
  <i name="version" type="string">6.4.3  </i>
  <i name="subversion" type="string">19Mar24 (build Oct  2 2024 09:01:45) complex                          parallel </i>
  <i name="platform" type="string">LinuxGNU </i>
  <i name="date" type="string">2025 02 17 </i>
  <i name="time" type="string">17:20:18 </i>
 </generator>
 <incar>
  <i type="string" name="PREC">Accurate</i>
  <i type="string" name="ALGO">Fast</i>
  <i type="int" name="ICHARG">     2</i>
  <i type="int" name="IBRION">    -1</i>
  <i name="EDIFF">      0.00010000</i>
  <i name="EDIFFG">     -0.03000000</i>
  <i type="int" name="ISYM">     0</i>
  <i name="ENCUT">    400.00000000</i>
  <i type="string" name="LREAL">Auto</i>
  <i type="int" name="ISMEAR">     1</i>
  <i name="SIGMA">      0.10000000</i>
  <i type="logical" name="LWAVE"> F  </i>
  <i type="logical" name="LCHARG"> F  </i>
  <i type="string" name="GGA">PE</i>
  <i type="logical" name="LDIPOL"> T  </i>
  <i type="int" name="IDIPOL">     3</i>
 </incar>
 <primitive_cell>
  <structure name="primitive_cell" >
   <crystal>
    <varray name="basis" >
     <v>       8.80347943       0.00000000       0.00000000 </v>
     <v>       4.40173971       7.62403682       0.00000000 </v>
     <v>       0.00000000       0.00000000      23.18801085 </v>
    </varray>
    <i name="volume">   1556.33410245 </i>
    <varray name="rec_basis" >
     <v>       0.11359145      -0.06558205       0.00000000 </v>
     <v>       0.00000000       0.13116411       0.00000000 </v>
     <v>       0.00000000       0.00000000       0.04312573 </v>
    </varray>
   </crystal>
   <varray name="positions" >
    <v>       0.00000000       0.00000000       0.00000000 </v>
    <v>       0.33333333       0.00000000       0.00000000 </v>
    <v>       0.66666667       0.00000000       0.00000000 </v>
    <v>       0.00000000       0.33333333       0.00000000 </v>
    <v>       0.33333333       0.33333333       0.00000000 </v>
    <v>       0.66666667       0.33333333       0.00000000 </v>
    <v>       0.00000000       0.66666667       0.00000000 </v>
    <v>       0.33333333       0.66666667       0.00000000 </v>
    <v>       0.66666667       0.66666667       0.00000000 </v>
    <v>       0.11111111       0.11111111       0.10332942 </v>
    <v>       0.44444444       0.11111111       0.10332942 </v>
    <v>       0.77777778       0.11111111       0.10332942 </v>
    <v>       0.11111111       0.44444444       0.10332942 </v>
    <v>       0.44444444       0.44444444       0.10332942 </v>
    <v>       0.77777778       0.44444444       0.10332942 </v>
    <v>       0.11111111       0.77777778       0.10332942 </v>
    <v>       0.44444444       0.77777778       0.10332942 </v>
    <v>       0.77777778       0.77777778       0.10332942 </v>
    <v>       0.89044316       0.22510833       0.20685965 </v>
    <v>       0.22021909       0.22635370       0.20945477 </v>
    <v>       0.55122131       0.22502314       0.20685344 </v>
    <v>       0.88990964       0.55460660       0.20688010 </v>
    <v>       0.22253506       0.55452627       0.20688450 </v>
    <v>       0.55416293       0.55859085       0.20400592 </v>
    <v>       0.88829118       0.89042592       0.20435126 </v>
    <v>       0.22168731       0.89475624       0.20676906 </v>
    <v>       0.55057966       0.89475247       0.20676003 </v>
    <v>       0.99565080       0.00066193       0.30856396 </v>
    <v>       0.34001567       0.98719080       0.31612028 </v>
    <v>       0.67068172       0.00078714       0.30860147 </v>
    <v>       0.97594411       0.34663060       0.31751987 </v>
    <v>       0.34402324       0.34647718       0.31769388 </v>
    <v>       0.66233380       0.34188745       0.30773059 </v>
    <v>       0.99707397       0.67279241       0.30830154 </v>
    <v>       0.33304779       0.67110363       0.30842664 </v>
    <v>       0.66263930       0.67111658       0.30836152 </v>
    <v>       0.21881613       0.22872352       0.36432634 </v>
   </varray>
  </structure>
  <varray name="primitive_index" >
   <v type="int" >        1 </v>
   <v type="int" >        2 </v>
   <v type="int" >        3 </v>
   <v type="int" >        4 </v>
   <v type="int" >        5 </v>
   <v type="int" >        6 </v>
   <v type="int" >        7 </v>
   <v type="int" >        8 </v>
   <v type="int" >        9 </v>
   <v type="int" >       10 </v>
   <v type="int" >       11 </v>
   <v type="int" >       12 </v>
   <v type="int" >       13 </v>
   <v type="int" >       14 </v>
   <v type="int" >       15 </v>
   <v type="int" >       16 </v>
   <v type="int" >       17 </v>
   <v type="int" >       18 </v>
   <v type="int" >       19 </v>
   <v type="int" >       20 </v>
   <v type="int" >       21 </v>
   <v type="int" >       22 </v>
   <v type="int" >       23 </v>
   <v type="int" >       24 </v>
   <v type="int" >       25 </v>
   <v type="int" >       26 </v>
   <v type="int" >       27 </v>
   <v type="int" >       28 </v>
   <v type="int" >       29 </v>
   <v type="int" >       30 </v>
   <v type="int" >       31 </v>
   <v type="int" >       32 </v>
   <v type="int" >       33 </v>
   <v type="int" >       34 </v>
   <v type="int" >       35 </v>
   <v type="int" >       36 </v>
   <v type="int" >       37 </v>
  </varray>
 </primitive_cell>
 <kpoints>
  <generation param="Monkhorst-Pack">
   <v type="int" name="divisions">       2        2        1 </v>
   <v name="usershift">      0.00000000       0.00000000       0.00000000 </v>
   <v name="genvec1">      0.50000000       0.00000000       0.00000000 </v>
   <v name="genvec2">      0.00000000       0.50000000       0.00000000 </v>
   <v name="genvec3">      0.00000000       0.00000000       1.00000000 </v>
   <v name="shift">      0.50000000       0.50000000       0.00000000 </v>
  </generation>
  <varray name="kpointlist" >
   <v>       0.25000000       0.25000000       0.00000000 </v>
   <v>       0.00000000       0.25000000       0.00000000 </v>
   <v>      -0.25000000       0.00000000       0.00000000 </v>
   <v>      -0.25000000       0.25000000       0.00000000 </v>
   <v>       0.50000000      -0.25000000       0.00000000 </v>
   <v>      -0.25000000       0.50000000       0.00000000 </v>
  </varray>
  <varray name="weights" >
   <v>       0.16666667 </v>
   <v>       0.16666667 </v>
   <v>       0.16666667 </v>
   <v>       0.16666667 </v>
   <v>       0.16666667 </v>
   <v>       0.16666667 </v>
  </varray>
 </kpoints>
 <parameters>
  <separator name="general" >
   <i type="string" name="SYSTEM">unknown system</i>
   <i type="logical" name="LCOMPAT"> F  </i>
  </separator>
  <separator name="electronic" >
   <i type="string" name="PREC">accura</i>
   <i name="ENMAX">    400.00000000</i>
   <i name="ENAUG">    605.39200000</i>
   <i name="EDIFF">      0.00010000</i>
   <i type="int" name="IALGO">    68</i>
   <i type="int" name="IWAVPR">    10</i>
   <i type="int" name="NBANDS">   242</i>
   <i type="int" name="NBANDSLOW">    -1</i>
   <i type="int" name="NBANDSHIGH">    -1</i>
   <i name="NELECT">    402.00000000</i>
   <i type="int" name="TURBO">     0</i>
   <i type="int" name="IRESTART">     0</i>
   <i type="int" name="NREBOOT">     0</i>
   <i type="int" name="NMIN">     0</i>
   <i name="EREF">      0.00000000</i>
   <separator name="electronic smearing" >
    <i type="int" name="ISMEAR">     1</i>
    <i name="SIGMA">      0.10000000</i>
    <i name="KSPACING">      0.50000000</i>
    <i type="logical" name="KGAMMA"> T  </i>
    <i type="logical" name="KBLOWUP"> T  </i>
   </separator>
   <separator name="electronic projectors" >
    <i type="logical" name="LREAL"> T  </i>
    <v name="ROPT">     -0.00025000     -0.00025000</v>
    <i type="int" name="LMAXPAW">  -100</i>
    <i type="int" name="LMAXMIX">     2</i>
    <i type="logical" name="NLSPLINE"> F  </i>
   </separator>
   <separator name="electronic startup" >
    <i type="int" name="ISTART">     0</i>
    <i type="int" name="ICHARG">     2</i>
    <i type="int" name="INIWAV">     1</i>
   </separator>
   <separator name="electronic spin" >
    <i type="int" name="ISPIN">     1</i>
    <i type="logical" name="LNONCOLLINEAR"> F  </i>
    <v name="MAGMOM">      1.00000000      1.00000000      1.00000000      1.00000000      1.00000000      1.00000000      1.00000000      1.00000000      1.00000000      1.00000000      1.00000000      1.00000000      1.00000000      1.00000000      1.00000000      1.00000000      1.00000000      1.00000000      1.00000000      1.00000000
      1.00000000      1.00000000      1.00000000      1.00000000      1.00000000      1.00000000      1.00000000      1.00000000      1.00000000      1.00000000      1.00000000      1.00000000      1.00000000      1.00000000      1.00000000      1.00000000      1.00000000</v>
    <i name="NUPDOWN">     -1.00000000</i>
    <i type="logical" name="LSORBIT"> F  </i>
    <v name="SAXIS">      0.00000000      0.00000000      1.00000000</v>
    <i type="logical" name="LSPIRAL"> F  </i>
    <v name="QSPIRAL">      0.00000000      0.00000000      0.00000000</v>
    <i type="logical" name="LZEROZ"> F  </i>
   </separator>
   <separator name="electronic exchange-correlation" >
    <i type="logical" name="LASPH"> F  </i>
   </separator>
   <separator name="electronic convergence" >
    <i type="int" name="NELM">    60</i>
    <i type="int" name="NELMDL">    -5</i>
    <i type="int" name="NELMIN">     2</i>
    <i name="ENINI">    400.00000000</i>
    <separator name="electronic convergence detail" >
     <i type="logical" name="LDIAG"> T  </i>
     <i type="logical" name="LSUBROT"> F  </i>
     <i name="WEIMIN">      0.00000000</i>
     <i name="EBREAK">      0.00000010</i>
     <i name="DEPER">      0.30000000</i>
     <i type="int" name="NRMM">     4</i>
     <i name="TIME">      0.40000000</i>
    </separator>
   </separator>
   <separator name="electronic mixer" >
    <i name="AMIX">      0.40000000</i>
    <i name="BMIX">      1.00000000</i>
    <i name="AMIN">      0.10000000</i>
    <i name="AMIX_MAG">      1.60000000</i>
    <i name="BMIX_MAG">      1.00000000</i>
    <separator name="electronic mixer details" >
     <i type="int" name="IMIX">     4</i>
     <i type="logical" name="MIXFIRST"> F  </i>
     <i type="int" name="MAXMIX">   -45</i>
     <i name="WC">    100.00000000</i>
     <i type="int" name="INIMIX">     1</i>
     <i type="int" name="MIXPRE">     1</i>
     <i type="int" name="MREMOVE">     5</i>
    </separator>
   </separator>
   <separator name="electronic dipolcorrection" >
    <i type="logical" name="LDIPOL"> T  </i>
    <i type="logical" name="LMONO"> F  </i>
    <i type="int" name="IDIPOL">     3</i>
    <i name="EPSILON">      1.00000000</i>
    <v name="DIPOL">   -100.00000000   -100.00000000   -100.00000000</v>
    <i name="EFIELD">      0.00000000</i>
    <i type="logical" name="LVACPOTAV"> F  </i>
   </separator>
  </separator>
  <separator name="grids" >
   <i type="int" name="NGX">    60</i>
   <i type="int" name="NGY">    60</i>
   <i type="int" name="NGZ">   160</i>
   <i type="int" name="NGXF">   120</i>
   <i type="int" name="NGYF">   120</i>
   <i type="int" name="NGZF">   320</i>
   <i type="logical" name="ADDGRID"> F  </i>
  </separator>
  <separator name="ionic" >
   <i type="int" name="NSW">     0</i>
   <i type="int" name="IBRION">    -1</i>
   <i type="int" name="MDALGO">     0</i>
   <i type="int" name="ISIF">     2</i>
   <i name="PSTRESS">      0.00000000</i>
   <i name="EDIFFG">     -0.03000000</i>
   <i type="int" name="NFREE">     0</i>
   <i name="POTIM">      0.50000000</i>
   <i name="SMASS">     -3.00000000</i>
   <i name="SCALEE">      1.00000000</i>
  </separator>
  <separator name="ionic md" >
   <i name="TEBEG">      0.00010000</i>
   <i name="TEEND">      0.00010000</i>
   <i type="int" name="NBLOCK">     1</i>
   <i type="int" name="KBLOCK">     1</i>
   <i type="int" name="NPACO">   256</i>
   <i name="APACO">     10.00000000</i>
  </separator>
  <separator name="symmetry" >
   <i type="int" name="ISYM">     0</i>
   <i name="SYMPREC">      0.00001000</i>
  </separator>
  <separator name="dos" >
   <i type="int" name="LORBIT">     0</i>
   <v name="RWIGS">     -1.00000000     -1.00000000</v>
   <i type="int" name="NEDOS">   301</i>
   <i name="EMIN">     10.00000000</i>
   <i name="EMAX">    -10.00000000</i>
   <i name="EFERMI">      0.00000000</i>
  </separator>
  <separator name="writing" >
   <i type="int" name="NWRITE">     2</i>
   <i type="logical" name="LWAVE"> F  </i>
   <i type="logical" name="LDOWNSAMPLE"> F  </i>
   <i type="logical" name="LCHARG"> F  </i>
   <i type="logical" name="LPARD"> F  </i>
   <i type="logical" name="LVTOT"> F  </i>
   <i type="logical" name="LVHAR"> F  </i>
   <i type="logical" name="LELF"> F  </i>
   <i type="logical" name="LOPTICS"> F  </i>
   <v name="STM">      0.00000000      0.00000000      0.00000000      0.00000000      0.00000000      0.00000000      0.00000000</v>
  </separator>
  <separator name="performance" >
   <i type="int" name="NPAR">     2</i>
   <i type="int" name="NSIM">     4</i>
   <i type="int" name="NBLK">    -1</i>
   <i type="logical" name="LPLANE"> T  </i>
   <i type="logical" name="LSCALAPACK"> T  </i>
   <i type="logical" name="LSCAAWARE"> F  </i>
   <i type="logical" name="LSCALU"> F  </i>
   <i type="logical" name="LASYNC"> F  </i>
   <i type="logical" name="LORBITALREAL"> F  </i>
  </separator>
  <separator name="miscellaneous" >
   <i type="int" name="IDIOT">     3</i>
   <i type="int" name="PHON_NSTRUCT">    -1</i>
   <i type="logical" name="LMUSIC"> F  </i>
   <v name="POMASS">    196.96600000     16.00000000</v>
   <v name="DARWINR">      0.00000000      0.00000000</v>
   <v name="DARWINV">      1.00000000      1.00000000</v>
   <i type="logical" name="LCORR"> T  </i>
  </separator>
  <i type="logical" name="GGA_COMPAT"> T  </i>
  <i type="logical" name="LBERRY"> F  </i>
  <i type="int" name="ICORELEVEL">     0</i>
  <i type="logical" name="LDAU"> F  </i>
  <i type="int" name="I_CONSTRAINED_M">     0</i>
  <separator name="electronic exchange-correlation" >
   <i type="string" name="GGA    ">PE</i>
   <i type="string" name="XC_C">1</i>
   <i type="int" name="VOSKOWN">     0</i>
   <i type="logical" name="LHFCALC"> F  </i>
   <i type="string" name="PRECFOCK"></i>
   <i type="logical" name="LSYMGRAD"> F  </i>
   <i type="logical" name="LHFONE"> F  </i>
   <i type="logical" name="LRHFCALC"> F  </i>
   <i type="logical" name="LTHOMAS"> F  </i>
   <i type="logical" name="LMODELHF"> F  </i>
   <i type="logical" name="LFOCKACE"> F  </i>
   <i name="ENCUT4O">     -1.00000000</i>
   <i type="int" name="EXXOEP">     0</i>
   <i type="int" name="FOURORBIT">     0</i>
   <i name="AEXX">      0.00000000</i>
   <i name="HFALPHA">      0.00000000</i>
   <i name="MCALPHA">      0.00000000</i>
   <i name="ALDAX">      1.00000000</i>
   <i name="AGGAX">      1.00000000</i>
   <i name="AMGGAX">      1.00000000</i>
   <i name="ALDAC">      1.00000000</i>
   <i name="AGGAC">      1.00000000</i>
   <i name="AMGGAC">      1.00000000</i>
   <i type="int" name="NKREDX">     1</i>
   <i type="int" name="NKREDY">     1</i>
   <i type="int" name="NKREDZ">     1</i>
   <i type="logical" name="SHIFTRED"> F  </i>
   <i type="logical" name="ODDONLY"> F  </i>
   <i type="logical" name="EVENONLY"> F  </i>
   <i type="int" name="LMAXFOCK">     0</i>
   <i type="int" name="NMAXFOCKAE">     0</i>
   <i type="logical" name="LFOCKAEDFT"> F  </i>
   <i name="HFSCREEN">      0.00000000</i>
   <i name="HFSCREENC">      0.00000000</i>
   <i type="int" name="NBANDSGWLOW">     0</i>
  </separator>
  <separator name="vdW DFT" >
   <i type="logical" name="LUSE_VDW"> F  </i>
   <i type="int" name="IVDW_NL">    -1</i>
   <i type="logical" name="LSPIN_VDW"> F  </i>
   <i name="ZAB_VDW">     -0.84910000</i>
   <i name="GAMMA_VDW">      1.39626340</i>
   <i name="ALPHA_VDW">      0.00000000</i>
   <i name="PARAM1">      0.12340000</i>
   <i name="PARAM2">      1.00000000</i>
   <i name="BPARAM">      6.30000000</i>
   <i name="CPARAM">      0.00930000</i>
  </separator>
  <separator name="model GW" >
   <i type="int" name="MODEL_GW">     0</i>
   <i name="MODEL_EPS0">     25.23785031</i>
   <i name="MODEL_ALPHA">      1.00000000</i>
  </separator>
  <separator name="linear response parameters" >
   <i type="logical" name="LEPSILON"> F  </i>
   <i type="logical" name="LRPA"> F  </i>
   <i type="logical" name="LNABLA"> F  </i>
   <i type="logical" name="LVEL"> F  </i>
   <i name="CSHIFT">      0.10000000</i>
   <i name="OMEGAMAX">     -1.00000000</i>
   <i name="DEG_THRESHOLD">      0.00200000</i>
   <i name="RTIME">     -0.10000000</i>
   <i name="WPLASMAI">      0.00000000</i>
   <v name="DFIELD">      0.00000000      0.00000000      0.00000000</v>
   <v name="WPLASMA">      0.00000000      0.00000000      0.00000000      0.00000000      0.00000000      0.00000000      0.00000000      0.00000000      0.00000000</v>
  </separator>
  <separator name="orbital magnetization" >
   <i type="logical" name="NUCIND"> F  </i>
   <v name="MAGPOS">      0.00000000      0.00000000      0.00000000</v>
   <i type="logical" name="LNICSALL"> T  </i>
   <i type="logical" name="ORBITALMAG"> F  </i>
   <i type="logical" name="LMAGBLOCH"> F  </i>
   <i type="logical" name="LCHIMAG"> F  </i>
   <i type="logical" name="LGAUGE"> T  </i>
   <i type="int" name="MAGATOM">     0</i>
   <v name="MAGDIPOL">      0.00000000      0.00000000      0.00000000</v>
   <v name="AVECCONST">      0.00000000      0.00000000      0.00000000</v>
  </separator>
  <separator name="response functions" >
   <i type="logical" name="LALL_IN_ONE"> F  </i>
   <i type="int" name="IALL_IN_ONE">    -1</i>
   <i type="int" name="NBANDS_WAVE">    -1</i>
   <i type="logical" name="LFINITE_TEMPERATURE"> F  </i>
   <i type="logical" name="LADDER"> F  </i>
   <i type="logical" name="LRPAFORCE"> F  </i>
   <i type="logical" name="LFXC"> F  </i>
   <i type="logical" name="LHARTREE"> T  </i>
   <i type="int" name="IBSE">     0</i>
   <v type="int" name="KPOINT">    -1     0     0     0</v>
   <i type="logical" name="LTCTC"> F  </i>
   <i type="logical" name="LTCTE"> F  </i>
   <i type="logical" name="LTETE"> F  </i>
   <i type="logical" name="LTRIPLET"> F  </i>
   <i type="logical" name="LFXCEPS"> F  </i>
   <i type="logical" name="LFXHEG"> F  </i>
   <i type="int" name="NATURALO">     2</i>
   <i type="logical" name="LHOLEGF"> F  </i>
   <i type="logical" name="L2ORDER"> F  </i>
   <i type="logical" name="LDMP1"> F  </i>
   <i type="logical" name="LMP2LT"> F  </i>
   <i type="logical" name="LSMP2LT"> F  </i>
   <i type="logical" name="LGWLF"> F  </i>
   <i name="ENCUTGW">     -1.60000002</i>
   <i name="ENCUTGWSOFT">     -1.60000002</i>
   <i name="ENCUTLF">     -1.00000000</i>
   <i type="logical" name="ESF_SPLINES"> F  </i>
   <i name="ESF_CONV">      0.01000000</i>
   <i type="int" name="ESF_NINTER">    15</i>
   <i type="int" name="LMAXMP2">    -1</i>
   <i name="SCISSOR">      0.00000000</i>
   <i type="int" name="NOMEGA">     0</i>
   <i type="int" name="NOMEGAR">     0</i>
   <i type="int" name="NBANDSGW">    -1</i>
   <i type="int" name="NBANDSO">    -1</i>
   <i type="int" name="NBANDSV">    -1</i>
   <i type="int" name="NELMGW">     1</i>
   <i type="int" name="NELMHF">     1</i>
   <i type="int" name="DIM">     3</i>
   <i type="int" name="IESPILON">     4</i>
   <i type="int" name="ANTIRES">     0</i>
   <i name="OMEGAMAX">    -30.00000000</i>
   <i name="OMEGAMIN">    -30.00000000</i>
   <i name="OMEGATL">   -200.00000000</i>
   <i type="int" name="OMEGAGRID">     0</i>
   <i name="CSHIFT">     -0.10000000</i>
   <i type="logical" name="LSELFENERGY"> F  </i>
   <i type="logical" name="LSPECTRAL"> F  </i>
   <i type="logical" name="LSPECTRALGW"> F  </i>
   <i type="logical" name="LSINGLES"> F  </i>
   <i type="logical" name="LFERMIGW"> F  </i>
   <i type="logical" name="ODDONLYGW"> F  </i>
   <i type="logical" name="EVENONLYGW"> F  </i>
   <i type="int" name="NKREDLFX">     1</i>
   <i type="int" name="NKREDLFY">     1</i>
   <i type="int" name="NKREDLFZ">     1</i>
   <i type="int" name="MAXMEM">  2800</i>
   <i type="int" name="TELESCOPE">     0</i>
   <i type="int" name="NTAUPAR">    -1</i>
   <i type="int" name="NOMEGAPAR">    -1</i>
   <i name="DAMP_NEWTON">      0.80000001</i>
   <i name="LAMBDA">      1.00000000</i>
  </separator>
  <separator name="External order field" >
   <i name="OFIELD_KAPPA">      0.00000000</i>
   <v name="OFIELD_K">      0.00000000      0.00000000      0.00000000</v>
   <i name="OFIELD_Q6_NEAR">      0.00000000</i>
   <i name="OFIELD_Q6_FAR">      0.00000000</i>
   <i name="OFIELD_A">      0.00000000</i>
  </separator>
  <separator name="optional k-points parameters" >
   <i type="int" name="KPOINTS_OPT_MODE">     1</i>
   <i type="logical" name="LKPOINTS_OPT"> F  </i>
  </separator>
 </parameters>
 <atominfo>
  <atoms>      37 </atoms>
  <types>       2 </types>
  <array name="atoms" >
   <dimension dim="1">ion</dimension>
   <field type="string">element</field>
   <field type="int">atomtype</field>
   <set>
    <rc><c>Au</c><c>   1</c></rc>
    <rc><c>Au</c><c>   1</c></rc>
    <rc><c>Au</c><c>   1</c></rc>
    <rc><c>Au</c><c>   1</c></rc>
    <rc><c>Au</c><c>   1</c></rc>
    <rc><c>Au</c><c>   1</c></rc>
    <rc><c>Au</c><c>   1</c></rc>
    <rc><c>Au</c><c>   1</c></rc>
    <rc><c>Au</c><c>   1</c></rc>
    <rc><c>Au</c><c>   1</c></rc>
    <rc><c>Au</c><c>   1</c></rc>
    <rc><c>Au</c><c>   1</c></rc>
    <rc><c>Au</c><c>   1</c></rc>
    <rc><c>Au</c><c>   1</c></rc>
    <rc><c>Au</c><c>   1</c></rc>
    <rc><c>Au</c><c>   1</c></rc>
    <rc><c>Au</c><c>   1</c></rc>
    <rc><c>Au</c><c>   1</c></rc>
    <rc><c>Au</c><c>   1</c></rc>
    <rc><c>Au</c><c>   1</c></rc>
    <rc><c>Au</c><c>   1</c></rc>
    <rc><c>Au</c><c>   1</c></rc>
    <rc><c>Au</c><c>   1</c></rc>
    <rc><c>Au</c><c>   1</c></rc>
    <rc><c>Au</c><c>   1</c></rc>
    <rc><c>Au</c><c>   1</c></rc>
    <rc><c>Au</c><c>   1</c></rc>
    <rc><c>Au</c><c>   1</c></rc>
    <rc><c>Au</c><c>   1</c></rc>
    <rc><c>Au</c><c>   1</c></rc>
    <rc><c>Au</c><c>   1</c></rc>
    <rc><c>Au</c><c>   1</c></rc>
    <rc><c>Au</c><c>   1</c></rc>
    <rc><c>Au</c><c>   1</c></rc>
    <rc><c>Au</c><c>   1</c></rc>
    <rc><c>Au</c><c>   1</c></rc>
    <rc><c>O </c><c>   2</c></rc>
   </set>
  </array>
  <array name="atomtypes" >
   <dimension dim="1">type</dimension>
   <field type="int">atomspertype</field>
   <field type="string">element</field>
   <field>mass</field>
   <field>valence</field>
   <field type="string">pseudopotential</field>
   <set>
    <rc><c>  36</c><c>Au</c><c>    196.96600000</c><c>     11.00000000</c><c>  PAW_PBE Au 04Oct2007                  </c></rc>
    <rc><c>   1</c><c>O </c><c>     16.00000000</c><c>      6.00000000</c><c>  PAW_PBE O 08Apr2002                   </c></rc>
   </set>
  </array>
 </atominfo>
 <structure name="initialpos" >
  <crystal>
   <varray name="basis" >
    <v>       8.80347943       0.00000000       0.00000000 </v>
    <v>       4.40173971       7.62403682       0.00000000 </v>
    <v>       0.00000000       0.00000000      23.18801085 </v>
   </varray>
   <i name="volume">   1556.33410245 </i>
   <varray name="rec_basis" >
    <v>       0.11359145      -0.06558205       0.00000000 </v>
    <v>       0.00000000       0.13116411       0.00000000 </v>
    <v>       0.00000000       0.00000000       0.04312573 </v>
   </varray>
  </crystal>
  <varray name="positions" >
   <v>       0.00000000       0.00000000       0.00000000 </v>
   <v>       0.33333333       0.00000000       0.00000000 </v>
   <v>       0.66666667       0.00000000       0.00000000 </v>
   <v>       0.00000000       0.33333333       0.00000000 </v>
   <v>       0.33333333       0.33333333       0.00000000 </v>
   <v>       0.66666667       0.33333333       0.00000000 </v>
   <v>       0.00000000       0.66666667       0.00000000 </v>
   <v>       0.33333333       0.66666667       0.00000000 </v>
   <v>       0.66666667       0.66666667       0.00000000 </v>
   <v>       0.11111111       0.11111111       0.10332942 </v>
   <v>       0.44444444       0.11111111       0.10332942 </v>
   <v>       0.77777778       0.11111111       0.10332942 </v>
   <v>       0.11111111       0.44444444       0.10332942 </v>
   <v>       0.44444444       0.44444444       0.10332942 </v>
   <v>       0.77777778       0.44444444       0.10332942 </v>
   <v>       0.11111111       0.77777778       0.10332942 </v>
   <v>       0.44444444       0.77777778       0.10332942 </v>
   <v>       0.77777778       0.77777778       0.10332942 </v>
   <v>       0.89044316       0.22510833       0.20685965 </v>
   <v>       0.22021909       0.22635370       0.20945477 </v>
   <v>       0.55122131       0.22502314       0.20685344 </v>
   <v>       0.88990964       0.55460660       0.20688010 </v>
   <v>       0.22253506       0.55452627       0.20688450 </v>
   <v>       0.55416293       0.55859085       0.20400592 </v>
   <v>       0.88829118       0.89042592       0.20435126 </v>
   <v>       0.22168731       0.89475624       0.20676906 </v>
   <v>       0.55057966       0.89475247       0.20676003 </v>
   <v>       0.99565080       0.00066193       0.30856396 </v>
   <v>       0.34001567       0.98719080       0.31612028 </v>
   <v>       0.67068172       0.00078714       0.30860147 </v>
   <v>       0.97594411       0.34663060       0.31751987 </v>
   <v>       0.34402324       0.34647718       0.31769388 </v>
   <v>       0.66233380       0.34188745       0.30773059 </v>
   <v>       0.99707397       0.67279241       0.30830154 </v>
   <v>       0.33304779       0.67110363       0.30842664 </v>
   <v>       0.66263930       0.67111658       0.30836152 </v>
   <v>       0.21881613       0.22872352       0.36432634 </v>
  </varray>
  <varray name="selective"  type="logical" >
   <v type="logical" >  F  F  F </v>
   <v type="logical" >  F  F  F </v>
   <v type="logical" >  F  F  F </v>
   <v type="logical" >  F  F  F </v>
   <v type="logical" >  F  F  F </v>
   <v type="logical" >  F  F  F </v>
   <v type="logical" >  F  F  F </v>
   <v type="logical" >  F  F  F </v>
   <v type="logical" >  F  F  F </v>
   <v type="logical" >  F  F  F </v>
   <v type="logical" >  F  F  F </v>
   <v type="logical" >  F  F  F </v>
   <v type="logical" >  F  F  F </v>
   <v type="logical" >  F  F  F </v>
   <v type="logical" >  F  F  F </v>
   <v type="logical" >  F  F  F </v>
   <v type="logical" >  F  F  F </v>
   <v type="logical" >  F  F  F </v>
   <v type="logical" >  T  T  T </v>
   <v type="logical" >  T  T  T </v>
   <v type="logical" >  T  T  T </v>
   <v type="logical" >  T  T  T </v>
   <v type="logical" >  T  T  T </v>
   <v type="logical" >  T  T  T </v>
   <v type="logical" >  T  T  T </v>
   <v type="logical" >  T  T  T </v>
   <v type="logical" >  T  T  T </v>
   <v type="logical" >  T  T  T </v>
   <v type="logical" >  T  T  T </v>
   <v type="logical" >  T  T  T </v>
   <v type="logical" >  T  T  T </v>
   <v type="logical" >  T  T  T </v>
   <v type="logical" >  T  T  T </v>
   <v type="logical" >  T  T  T </v>
   <v type="logical" >  T  T  T </v>
   <v type="logical" >  T  T  T </v>
   <v type="logical" >  T  T  T </v>
  </varray>
  <nose>
   <v>      -3.00000000       0.00000000       0.00010000       0.00010000 </v>
  </nose>
 </structure>
 <calculation>
  <scstep>
   <time name="dav">    3.74    3.77</time>
   <time name="total">    3.81    3.84</time>
   <dipole>
    <v name="dipole">      0.00000000       0.00000000       0.00013462 </v>
    <i name="Tr[quadrupol]">  -4993.18550464 </i>
    <i name="Echarged">      0.00000000 </i>
    <i name="Edipol_quadrupol">      0.00000000 </i>
    <i name="Eion">      0.00000000 </i>
   </dipole>
   <energy>
    <i name="alphaZ">    990.63811796 </i>
    <i name="ewald"> 112507.81841367 </i>
    <i name="hartreedc">-147826.98869530 </i>
    <i name="XCdc">    577.43341809 </i>
    <i name="pawpsdc">  31814.05959759 </i>
    <i name="pawaedc"> -30984.71300122 </i>
    <i name="eentropy">     -0.00655772 </i>
    <i name="bandstr">   1623.46399817 </i>
    <i name="atom">  33771.16187166 </i>
    <i name="e_fr_energy">   2472.86716289 </i>
    <i name="e_wo_entrp">   2472.87372061 </i>
    <i name="e_0_energy">   2472.86934879 </i>
   </energy>
  </scstep>
  <scstep>
   <time name="dav">    4.08    4.10</time>
   <time name="total">    4.08    4.10</time>
   <dipole>
    <v name="dipole">      0.00000000       0.00000000       0.00013462 </v>
    <i name="Tr[quadrupol]">  -4993.18550464 </i>
    <i name="Echarged">      0.00000000 </i>
    <i name="Edipol_quadrupol">      0.00000000 </i>
    <i name="Eion">      0.00000000 </i>
   </dipole>
   <energy>
    <i name="e_fr_energy">     35.90201875 </i>
    <i name="e_wo_entrp">     35.89480356 </i>
    <i name="e_0_energy">     35.89961369 </i>
   </energy>
  </scstep>
  <scstep>
   <time name="dav">    4.04    4.07</time>
   <time name="total">    4.05    4.07</time>
   <dipole>
    <v name="dipole">      0.00000000       0.00000000       0.00013462 </v>
    <i name="Tr[quadrupol]">  -4993.18550464 </i>
    <i name="Echarged">      0.00000000 </i>
    <i name="Edipol_quadrupol">      0.00000000 </i>
    <i name="Eion">      0.00000000 </i>
   </dipole>
   <energy>
    <i name="e_fr_energy">   -122.33641850 </i>
    <i name="e_wo_entrp">   -122.32689593 </i>
    <i name="e_0_energy">   -122.33324431 </i>
   </energy>
  </scstep>
  <scstep>
   <time name="dav">    3.99    4.01</time>
   <time name="total">    3.99    4.02</time>
   <dipole>
    <v name="dipole">      0.00000000       0.00000000       0.00013462 </v>
    <i name="Tr[quadrupol]">  -4993.18550464 </i>
    <i name="Echarged">      0.00000000 </i>
    <i name="Edipol_quadrupol">      0.00000000 </i>
    <i name="Eion">      0.00000000 </i>
   </dipole>
   <energy>
    <i name="e_fr_energy">   -126.67281087 </i>
    <i name="e_wo_entrp">   -126.66298801 </i>
    <i name="e_0_energy">   -126.66953658 </i>
   </energy>
  </scstep>
  <scstep>
   <time name="dav">    4.19    4.22</time>
   <time name="total">    4.35    4.38</time>
   <dipole>
    <v name="dipole">      0.00000000       0.00000000       0.00013462 </v>
    <i name="Tr[quadrupol]">  -4993.18550464 </i>
    <i name="Echarged">      0.00000000 </i>
    <i name="Edipol_quadrupol">      0.00000000 </i>
    <i name="Eion">      0.00000000 </i>
   </dipole>
   <energy>
    <i name="e_fr_energy">   -126.82860178 </i>
    <i name="e_wo_entrp">   -126.81877765 </i>
    <i name="e_0_energy">   -126.82532707 </i>
   </energy>
  </scstep>
  <scstep>
   <time name="diag">    0.59    0.59</time>
   <time name="diis">    2.33    2.34</time>
   <time name="orth">    0.09    0.09</time>
   <time name="total">    3.22    3.24</time>
   <dipole>
    <v name="dipole">      0.00000000       0.00000000       0.60629683 </v>
    <i name="Tr[quadrupol]">  -4989.77986886 </i>
    <i name="Echarged">      0.00000000 </i>
    <i name="Edipol_quadrupol">      0.00000000 </i>
    <i name="Eion">      0.00000000 </i>
   </dipole>
   <energy>
    <i name="e_fr_energy">   -120.74844245 </i>
    <i name="e_wo_entrp">   -120.78070003 </i>
    <i name="e_0_energy">   -120.75919498 </i>
   </energy>
  </scstep>
  <scstep>
   <time name="diag">    0.58    0.59</time>
   <time name="diis">    2.49    2.50</time>
   <time name="orth">    0.09    0.09</time>
   <time name="total">    3.37    3.39</time>
   <dipole>
    <v name="dipole">      0.00000000       0.00000000      -1.48494375 </v>
    <i name="Tr[quadrupol]">  -4987.62809319 </i>
    <i name="Echarged">      0.00000000 </i>
    <i name="Edipol_quadrupol">      0.00000000 </i>
    <i name="Eion">      0.00000000 </i>
   </dipole>
   <energy>
    <i name="e_fr_energy">   -134.60083036 </i>
    <i name="e_wo_entrp">   -134.60093267 </i>
    <i name="e_0_energy">   -134.60086446 </i>
   </energy>
  </scstep>
  <scstep>
   <time name="diag">    0.58    0.59</time>
   <time name="diis">    2.55    2.56</time>
   <time name="orth">    0.09    0.09</time>
   <time name="total">    3.43    3.45</time>
   <dipole>
    <v name="dipole">      0.00000000       0.00000000       1.59182246 </v>
    <i name="Tr[quadrupol]">  -4995.02643557 </i>
    <i name="Echarged">      0.00000000 </i>
    <i name="Edipol_quadrupol">      0.00000000 </i>
    <i name="Eion">      0.00000000 </i>
   </dipole>
   <energy>
    <i name="e_fr_energy">   -134.09712367 </i>
    <i name="e_wo_entrp">   -134.07565304 </i>
    <i name="e_0_energy">   -134.08996679 </i>
   </energy>
  </scstep>
  <scstep>
   <time name="diag">    0.58    0.58</time>
   <time name="diis">    2.45    2.46</time>
   <time name="orth">    0.08    0.09</time>
   <time name="total">    3.33    3.34</time>
   <dipole>
    <v name="dipole">      0.00000000       0.00000000      -0.15663836 </v>
    <i name="Tr[quadrupol]">  -4991.34739730 </i>
    <i name="Echarged">      0.00000000 </i>
    <i name="Edipol_quadrupol">      0.00000000 </i>
    <i name="Eion">      0.00000000 </i>
   </dipole>
   <energy>
    <i name="e_fr_energy">   -118.04434939 </i>
    <i name="e_wo_entrp">   -118.02899741 </i>
    <i name="e_0_energy">   -118.03923206 </i>
   </energy>
  </scstep>
  <scstep>
   <time name="diag">    0.58    0.58</time>
   <time name="diis">    2.46    2.48</time>
   <time name="orth">    0.09    0.09</time>
   <time name="total">    3.34    3.36</time>
   <dipole>
    <v name="dipole">      0.00000000       0.00000000       0.03770591 </v>
    <i name="Tr[quadrupol]">  -4988.38828824 </i>
    <i name="Echarged">      0.00000000 </i>
    <i name="Edipol_quadrupol">      0.00000000 </i>
    <i name="Eion">      0.00000000 </i>
   </dipole>
   <energy>
    <i name="e_fr_energy">   -115.18502700 </i>
    <i name="e_wo_entrp">   -115.16194540 </i>
    <i name="e_0_energy">   -115.17733314 </i>
   </energy>
  </scstep>
  <scstep>
   <time name="diag">    0.58    0.60</time>
   <time name="diis">    2.45    2.46</time>
   <time name="orth">    0.09    0.09</time>
   <time name="total">    3.33    3.36</time>
   <dipole>
    <v name="dipole">      0.00000000       0.00000000       0.11853517 </v>
    <i name="Tr[quadrupol]">  -4988.79995419 </i>
    <i name="Echarged">      0.00000000 </i>
    <i name="Edipol_quadrupol">      0.00000000 </i>
    <i name="Eion">      0.00000000 </i>
   </dipole>
   <energy>
    <i name="e_fr_energy">   -115.23635942 </i>
    <i name="e_wo_entrp">   -115.21277116 </i>
    <i name="e_0_energy">   -115.22849666 </i>
   </energy>
  </scstep>
  <scstep>
   <time name="diag">    0.58    0.59</time>
   <time name="diis">    2.43    2.44</time>
   <time name="orth">    0.09    0.09</time>
   <time name="total">    3.31    3.33</time>
   <dipole>
    <v name="dipole">      0.00000000       0.00000000       0.11737673 </v>
    <i name="Tr[quadrupol]">  -4989.88418751 </i>
    <i name="Echarged">      0.00000000 </i>
    <i name="Edipol_quadrupol">      0.00000000 </i>
    <i name="Eion">      0.00000000 </i>
   </dipole>
   <energy>
    <i name="e_fr_energy">   -115.12296411 </i>
    <i name="e_wo_entrp">   -115.11479525 </i>
    <i name="e_0_energy">   -115.12024115 </i>
   </energy>
  </scstep>
  <scstep>
   <time name="diag">    0.58    0.58</time>
   <time name="diis">    2.37    2.38</time>
   <time name="orth">    0.09    0.09</time>
   <time name="total">    3.25    3.26</time>
   <dipole>
    <v name="dipole">      0.00000000       0.00000000       0.11229236 </v>
    <i name="Tr[quadrupol]">  -4989.61235498 </i>
    <i name="Echarged">      0.00000000 </i>
    <i name="Edipol_quadrupol">      0.00000000 </i>
    <i name="Eion">      0.00000000 </i>
   </dipole>
   <energy>
    <i name="e_fr_energy">   -115.05642258 </i>
    <i name="e_wo_entrp">   -115.04625528 </i>
    <i name="e_0_energy">   -115.05303348 </i>
   </energy>
  </scstep>
  <scstep>
   <time name="diag">    0.58    0.58</time>
   <time name="diis">    2.43    2.44</time>
   <time name="orth">    0.09    0.09</time>
   <time name="total">    3.31    3.33</time>
   <dipole>
    <v name="dipole">      0.00000000       0.00000000       0.11421666 </v>
    <i name="Tr[quadrupol]">  -4989.34986069 </i>
    <i name="Echarged">      0.00000000 </i>
    <i name="Edipol_quadrupol">      0.00000000 </i>
    <i name="Eion">      0.00000000 </i>
   </dipole>
   <energy>
    <i name="e_fr_energy">   -114.99260020 </i>
    <i name="e_wo_entrp">   -114.97082452 </i>
    <i name="e_0_energy">   -114.98534164 </i>
   </energy>
  </scstep>
  <scstep>
   <time name="diag">    0.58    0.59</time>
   <time name="diis">    2.51    2.53</time>
   <time name="orth">    0.09    0.09</time>
   <time name="total">    3.40    3.42</time>
   <dipole>
    <v name="dipole">      0.00000000       0.00000000       0.12341653 </v>
    <i name="Tr[quadrupol]">  -4989.30788800 </i>
    <i name="Echarged">      0.00000000 </i>
    <i name="Edipol_quadrupol">      0.00000000 </i>
    <i name="Eion">      0.00000000 </i>
   </dipole>
   <energy>
    <i name="e_fr_energy">   -114.98566601 </i>
    <i name="e_wo_entrp">   -114.95781014 </i>
    <i name="e_0_energy">   -114.97638072 </i>
   </energy>
  </scstep>
  <scstep>
   <time name="diag">    0.58    0.59</time>
   <time name="diis">    2.42    2.43</time>
   <time name="orth">    0.09    0.09</time>
   <time name="total">    3.30    3.32</time>
   <dipole>
    <v name="dipole">      0.00000000       0.00000000       0.11763137 </v>
    <i name="Tr[quadrupol]">  -4989.36049945 </i>
    <i name="Echarged">      0.00000000 </i>
    <i name="Edipol_quadrupol">      0.00000000 </i>
    <i name="Eion">      0.00000000 </i>
   </dipole>
   <energy>
    <i name="e_fr_energy">   -114.98781214 </i>
    <i name="e_wo_entrp">   -114.96176341 </i>
    <i name="e_0_energy">   -114.97912923 </i>
   </energy>
  </scstep>
  <scstep>
   <time name="diag">    0.58    0.58</time>
   <time name="diis">    2.45    2.46</time>
   <time name="orth">    0.09    0.09</time>
   <time name="total">    3.33    3.35</time>
   <dipole>
    <v name="dipole">      0.00000000       0.00000000       0.11895002 </v>
    <i name="Tr[quadrupol]">  -4989.36041901 </i>
    <i name="Echarged">      0.00000000 </i>
    <i name="Edipol_quadrupol">      0.00000000 </i>
    <i name="Eion">      0.00000000 </i>
   </dipole>
   <energy>
    <i name="e_fr_energy">   -114.98824081 </i>
    <i name="e_wo_entrp">   -114.96030437 </i>
    <i name="e_0_energy">   -114.97892866 </i>
   </energy>
  </scstep>
  <scstep>
   <time name="diag">    0.58    0.59</time>
   <time name="diis">    1.75    1.76</time>
   <time name="orth">    0.09    0.09</time>
   <time name="total">    2.63    2.65</time>
   <dipole>
    <v name="dipole">      0.00000000       0.00000000       0.12090857 </v>
    <i name="Tr[quadrupol]">  -4989.37772466 </i>
    <i name="Echarged">      0.00000000 </i>
    <i name="Edipol_quadrupol">      0.00000000 </i>
    <i name="Eion">      0.00000000 </i>
   </dipole>
   <energy>
    <i name="e_fr_energy">   -114.98846221 </i>
    <i name="e_wo_entrp">   -114.96051925 </i>
    <i name="e_0_energy">   -114.97914789 </i>
   </energy>
  </scstep>
  <scstep>
   <time name="diag">    0.58    0.58</time>
   <time name="diis">    1.64    1.65</time>
   <time name="orth">    0.09    0.09</time>
   <time name="total">    2.52    2.53</time>
   <dipole>
    <v name="dipole">      0.00000000       0.00000000       0.12111619 </v>
    <i name="Tr[quadrupol]">  -4989.35957874 </i>
    <i name="Echarged">      0.00000000 </i>
    <i name="Edipol_quadrupol">      0.00000000 </i>
    <i name="Eion">      0.00000000 </i>
   </dipole>
   <energy>
    <i name="e_fr_energy">   -114.98899282 </i>
    <i name="e_wo_entrp">   -114.96116691 </i>
    <i name="e_0_energy">   -114.97971752 </i>
   </energy>
  </scstep>
  <scstep>
   <time name="diag">    0.58    0.59</time>
   <time name="diis">    1.55    1.56</time>
   <time name="orth">    0.09    0.09</time>
   <time name="total">    2.43    2.45</time>
   <dipole>
    <v name="dipole">      0.00000000       0.00000000       0.11892129 </v>
    <i name="Tr[quadrupol]">  -4989.20255578 </i>
    <i name="Echarged">      0.00000000 </i>
    <i name="Edipol_quadrupol">      0.00000000 </i>
    <i name="Eion">      0.00000000 </i>
   </dipole>
   <energy>
    <i name="e_fr_energy">   -114.98917482 </i>
    <i name="e_wo_entrp">   -114.96164567 </i>
    <i name="e_0_energy">   -114.97999844 </i>
   </energy>
  </scstep>
  <scstep>
   <time name="diag">    0.58    0.58</time>
   <time name="diis">    1.51    1.51</time>
   <time name="orth">    0.09    0.09</time>
   <time name="total">    2.39    2.40</time>
   <dipole>
    <v name="dipole">      0.00000000       0.00000000       0.12339275 </v>
    <i name="Tr[quadrupol]">  -4989.14274301 </i>
    <i name="Echarged">      0.00000000 </i>
    <i name="Edipol_quadrupol">      0.00000000 </i>
    <i name="Eion">      0.00000000 </i>
   </dipole>
   <energy>
    <i name="e_fr_energy">   -114.98931492 </i>
    <i name="e_wo_entrp">   -114.96143953 </i>
    <i name="e_0_energy">   -114.98002312 </i>
   </energy>
  </scstep>
  <scstep>
   <time name="diag">    0.58    0.59</time>
   <time name="diis">    1.17    1.18</time>
   <time name="orth">    0.09    0.09</time>
   <time name="total">    1.90    1.91</time>
   <dipole>
    <v name="dipole">      0.00000000       0.00000000       0.12467328 </v>
    <i name="Tr[quadrupol]">  -4989.11955185 </i>
    <i name="Echarged">      0.00000000 </i>
    <i name="Edipol_quadrupol">      0.00000000 </i>
    <i name="Eion">      0.00000000 </i>
   </dipole>
   <energy>
    <i name="alphaZ">    992.03183953 </i>
    <i name="ewald"> 112507.81841367 </i>
    <i name="hartreedc">-147337.99823388 </i>
    <i name="XCdc">    561.00875838 </i>
    <i name="pawpsdc">  36780.88054517 </i>
    <i name="pawaedc"> -36033.00238693 </i>
    <i name="eentropy">     -0.02783996 </i>
    <i name="bandstr">  -1356.86232676 </i>
    <i name="atom">  33771.16187166 </i>
    <i name="e_fr_energy">   -114.98935913 </i>
    <i name="e_wo_entrp">   -114.96151917 </i>
    <i name="e_0_energy">   -114.98007914 </i>
   </energy>
  </scstep>
  <structure>
   <crystal>
    <varray name="basis" >
     <v>       8.80347943       0.00000000       0.00000000 </v>
     <v>       4.40173971       7.62403682       0.00000000 </v>
     <v>       0.00000000       0.00000000      23.18801085 </v>
    </varray>
    <i name="volume">   1556.33410245 </i>
    <varray name="rec_basis" >
     <v>       0.11359145      -0.06558205       0.00000000 </v>
     <v>       0.00000000       0.13116411       0.00000000 </v>
     <v>       0.00000000       0.00000000       0.04312573 </v>
    </varray>
   </crystal>
   <varray name="positions" >
    <v>       0.00000000       0.00000000       0.00000000 </v>
    <v>       0.33333333       0.00000000       0.00000000 </v>
    <v>       0.66666667       0.00000000       0.00000000 </v>
    <v>       0.00000000       0.33333333       0.00000000 </v>
    <v>       0.33333333       0.33333333       0.00000000 </v>
    <v>       0.66666667       0.33333333       0.00000000 </v>
    <v>       0.00000000       0.66666667       0.00000000 </v>
    <v>       0.33333333       0.66666667       0.00000000 </v>
    <v>       0.66666667       0.66666667       0.00000000 </v>
    <v>       0.11111111       0.11111111       0.10332942 </v>
    <v>       0.44444444       0.11111111       0.10332942 </v>
    <v>       0.77777778       0.11111111       0.10332942 </v>
    <v>       0.11111111       0.44444444       0.10332942 </v>
    <v>       0.44444444       0.44444444       0.10332942 </v>
    <v>       0.77777778       0.44444444       0.10332942 </v>
    <v>       0.11111111       0.77777778       0.10332942 </v>
    <v>       0.44444444       0.77777778       0.10332942 </v>
    <v>       0.77777778       0.77777778       0.10332942 </v>
    <v>       0.89044316       0.22510833       0.20685965 </v>
    <v>       0.22021909       0.22635370       0.20945477 </v>
    <v>       0.55122131       0.22502314       0.20685344 </v>
    <v>       0.88990964       0.55460660       0.20688010 </v>
    <v>       0.22253506       0.55452627       0.20688450 </v>
    <v>       0.55416293       0.55859085       0.20400592 </v>
    <v>       0.88829118       0.89042592       0.20435126 </v>
    <v>       0.22168731       0.89475624       0.20676906 </v>
    <v>       0.55057966       0.89475247       0.20676003 </v>
    <v>       0.99565080       0.00066193       0.30856396 </v>
    <v>       0.34001567       0.98719080       0.31612028 </v>
    <v>       0.67068172       0.00078714       0.30860147 </v>
    <v>       0.97594411       0.34663060       0.31751987 </v>
    <v>       0.34402324       0.34647718       0.31769388 </v>
    <v>       0.66233380       0.34188745       0.30773059 </v>
    <v>       0.99707397       0.67279241       0.30830154 </v>
    <v>       0.33304779       0.67110363       0.30842664 </v>
    <v>       0.66263930       0.67111658       0.30836152 </v>
    <v>       0.21881613       0.22872352       0.36432634 </v>
   </varray>
  </structure>
  <varray name="forces" >
   <v>      -0.01991322      -0.01303940      -0.09406252 </v>
   <v>      -0.00016472       0.01902848      -0.07201424 </v>
   <v>       0.01992003      -0.01305895      -0.09377771 </v>
   <v>       0.01160962      -0.01225492      -0.07531980 </v>
   <v>      -0.01165052      -0.01210796      -0.07492133 </v>
   <v>      -0.00007188      -0.00911262      -0.05453334 </v>
   <v>      -0.00011770       0.02415457      -0.08515083 </v>
   <v>      -0.01024703       0.00103946      -0.05283605 </v>
   <v>       0.01010700       0.00108041      -0.05305998 </v>
   <v>       0.00858330       0.01723804       0.12486789 </v>
   <v>      -0.00862065       0.01732337       0.12416271 </v>
   <v>       0.00071265       0.07347232       0.09828801 </v>
   <v>       0.00056265      -0.00906848       0.13497644 </v>
   <v>      -0.02481799      -0.00773239      -0.00052034 </v>
   <v>       0.02613593      -0.00789540      -0.00083155 </v>
   <v>       0.06253387      -0.02387032       0.09549721 </v>
   <v>       0.00040096       0.04276060      -0.01632826 </v>
   <v>      -0.06087350      -0.02379706       0.09562724 </v>
   <v>       0.00235537       0.00351268      -0.00761806 </v>
   <v>       0.00048421      -0.01698541       0.01409529 </v>
   <v>      -0.00144748       0.00594653      -0.00554282 </v>
   <v>       0.00494647      -0.00687404      -0.00210102 </v>
   <v>      -0.00725448      -0.00648528       0.00103008 </v>
   <v>      -0.00168799      -0.00314230       0.00742127 </v>
   <v>      -0.00100019       0.00640947       0.00675248 </v>
   <v>      -0.00807053      -0.00930218      -0.00501970 </v>
   <v>       0.00475479      -0.00836664      -0.00416344 </v>
   <v>       0.00646852       0.01153028      -0.00137023 </v>
   <v>      -0.00214548      -0.00734012       0.00444960 </v>
   <v>      -0.00775139       0.00785870      -0.00254182 </v>
   <v>       0.04090088      -0.00431087       0.00103733 </v>
   <v>      -0.02700984       0.00434316      -0.00641004 </v>
   <v>      -0.00286656      -0.02265968       0.00777332 </v>
   <v>      -0.00026246       0.01863321       0.00580206 </v>
   <v>      -0.00173915      -0.01619878      -0.01029664 </v>
   <v>       0.00115179      -0.01230499      -0.00798960 </v>
   <v>      -0.00391528      -0.00842349       0.00462840 </v>
  </varray>
  <varray name="stress" >
   <v>     -16.97830896      -0.00240423      -0.00312555 </v>
   <v>      -0.00240429     -17.24690097      -0.20880291 </v>
   <v>      -0.00312565      -0.20880298       0.22823834 </v>
  </varray>
  <energy>
   <i name="e_fr_energy">   -114.98935913 </i>
   <i name="e_wo_entrp">   -114.96151917 </i>
   <i name="e_0_energy">   -114.98007914 </i>
  </energy>
  <time name="totalsc">   75.15   75.57</time>
  <eigenvalues>
   <array>
    <dimension dim="1">band</dimension>
    <dimension dim="2">kpoint</dimension>
    <dimension dim="3">spin</dimension>
    <field>eigene</field>
    <field>occ</field>
    <set>
     <set comment="spin 1">
      <set comment="kpoint 1">
       <r>  -17.1854    1.0000 </r>
       <r>   -8.2185    1.0000 </r>
       <r>   -7.0854    1.0000 </r>
       <r>   -6.8703    1.0000 </r>
       <r>   -6.3828    1.0000 </r>
       <r>   -6.3746    1.0000 </r>
       <r>   -6.1484    1.0000 </r>
       <r>   -6.1031    1.0000 </r>
       <r>   -6.0880    1.0000 </r>
       <r>   -6.0007    1.0000 </r>
       <r>   -5.9944    1.0000 </r>
       <r>   -5.9646    1.0000 </r>
       <r>   -5.8472    1.0000 </r>
       <r>   -5.7886    1.0000 </r>
       <r>   -5.7017    1.0000 </r>
       <r>   -5.6669    1.0000 </r>
       <r>   -5.6507    1.0000 </r>
       <r>   -5.5246    1.0000 </r>
       <r>   -5.4864    1.0000 </r>
       <r>   -5.4114    1.0000 </r>
       <r>   -5.3935    1.0000 </r>
       <r>   -5.3796    1.0000 </r>
       <r>   -5.3671    1.0000 </r>
       <r>   -5.2951    1.0000 </r>
       <r>   -5.2781    1.0000 </r>
       <r>   -5.2728    1.0000 </r>
       <r>   -5.2585    1.0000 </r>
       <r>   -5.2478    1.0000 </r>
       <r>   -5.2384    1.0000 </r>
       <r>   -5.2138    1.0000 </r>
       <r>   -5.1786    1.0000 </r>
       <r>   -5.1224    1.0000 </r>
       <r>   -5.0865    1.0000 </r>
       <r>   -5.0349    1.0000 </r>
       <r>   -5.0173    1.0000 </r>
       <r>   -4.9899    1.0000 </r>
       <r>   -4.9083    1.0000 </r>
       <r>   -4.8992    1.0000 </r>
       <r>   -4.8790    1.0000 </r>
       <r>   -4.8354    1.0000 </r>
       <r>   -4.8120    1.0000 </r>
       <r>   -4.7238    1.0000 </r>
       <r>   -4.7178    1.0000 </r>
       <r>   -4.6714    1.0000 </r>
       <r>   -4.6310    1.0000 </r>
       <r>   -4.6131    1.0000 </r>
       <r>   -4.5890    1.0000 </r>
       <r>   -4.5763    1.0000 </r>
       <r>   -4.4711    1.0000 </r>
       <r>   -4.4482    1.0000 </r>
       <r>   -4.4106    1.0000 </r>
       <r>   -4.3909    1.0000 </r>
       <r>   -4.3824    1.0000 </r>
       <r>   -4.3398    1.0000 </r>
       <r>   -4.3239    1.0000 </r>
       <r>   -4.2672    1.0000 </r>
       <r>   -4.2359    1.0000 </r>
       <r>   -4.2038    1.0000 </r>
       <r>   -4.1687    1.0000 </r>
       <r>   -4.1569    1.0000 </r>
       <r>   -4.0959    1.0000 </r>
       <r>   -4.0751    1.0000 </r>
       <r>   -4.0586    1.0000 </r>
       <r>   -4.0362    1.0000 </r>
       <r>   -4.0106    1.0000 </r>
       <r>   -3.9777    1.0000 </r>
       <r>   -3.9711    1.0000 </r>
       <r>   -3.9283    1.0000 </r>
       <r>   -3.9203    1.0000 </r>
       <r>   -3.8879    1.0000 </r>
       <r>   -3.8618    1.0000 </r>
       <r>   -3.8181    1.0000 </r>
       <r>   -3.8035    1.0000 </r>
       <r>   -3.7975    1.0000 </r>
       <r>   -3.7672    1.0000 </r>
       <r>   -3.7613    1.0000 </r>
       <r>   -3.7356    1.0000 </r>
       <r>   -3.7059    1.0000 </r>
       <r>   -3.6698    1.0000 </r>
       <r>   -3.6558    1.0000 </r>
       <r>   -3.6497    1.0000 </r>
       <r>   -3.6384    1.0000 </r>
       <r>   -3.6334    1.0000 </r>
       <r>   -3.6009    1.0000 </r>
       <r>   -3.5959    1.0000 </r>
       <r>   -3.5675    1.0000 </r>
       <r>   -3.5559    1.0000 </r>
       <r>   -3.5329    1.0000 </r>
       <r>   -3.4985    1.0000 </r>
       <r>   -3.4925    1.0000 </r>
       <r>   -3.4873    1.0000 </r>
       <r>   -3.4802    1.0000 </r>
       <r>   -3.4402    1.0000 </r>
       <r>   -3.4353    1.0000 </r>
       <r>   -3.4151    1.0000 </r>
       <r>   -3.4057    1.0000 </r>
       <r>   -3.3688    1.0000 </r>
       <r>   -3.3505    1.0000 </r>
       <r>   -3.3407    1.0000 </r>
       <r>   -3.3087    1.0000 </r>
       <r>   -3.2807    1.0000 </r>
       <r>   -3.2279    1.0000 </r>
       <r>   -3.2110    1.0000 </r>
       <r>   -3.1817    1.0000 </r>
       <r>   -3.1661    1.0000 </r>
       <r>   -3.1389    1.0000 </r>
       <r>   -3.1268    1.0000 </r>
       <r>   -3.1260    1.0000 </r>
       <r>   -3.1027    1.0000 </r>
       <r>   -3.0728    1.0000 </r>
       <r>   -3.0229    1.0000 </r>
       <r>   -2.9752    1.0000 </r>
       <r>   -2.9579    1.0000 </r>
       <r>   -2.9547    1.0000 </r>
       <r>   -2.9339    1.0000 </r>
       <r>   -2.9045    1.0000 </r>
       <r>   -2.8719    1.0000 </r>
       <r>   -2.8353    1.0000 </r>
       <r>   -2.8256    1.0000 </r>
       <r>   -2.8096    1.0000 </r>
       <r>   -2.7898    1.0000 </r>
       <r>   -2.7640    1.0000 </r>
       <r>   -2.7522    1.0000 </r>
       <r>   -2.7214    1.0000 </r>
       <r>   -2.7036    1.0000 </r>
       <r>   -2.6681    1.0000 </r>
       <r>   -2.6548    1.0000 </r>
       <r>   -2.6141    1.0000 </r>
       <r>   -2.5968    1.0000 </r>
       <r>   -2.5643    1.0000 </r>
       <r>   -2.5150    1.0000 </r>
       <r>   -2.5094    1.0000 </r>
       <r>   -2.4927    1.0000 </r>
       <r>   -2.4313    1.0000 </r>
       <r>   -2.4129    1.0000 </r>
       <r>   -2.3891    1.0000 </r>
       <r>   -2.3806    1.0000 </r>
       <r>   -2.3340    1.0000 </r>
       <r>   -2.3274    1.0000 </r>
       <r>   -2.3139    1.0000 </r>
       <r>   -2.2584    1.0000 </r>
       <r>   -2.2515    1.0000 </r>
       <r>   -2.2291    1.0000 </r>
       <r>   -2.2183    1.0000 </r>
       <r>   -2.1864    1.0000 </r>
       <r>   -2.1563    1.0000 </r>
       <r>   -2.1320    1.0000 </r>
       <r>   -2.1046    1.0000 </r>
       <r>   -2.0742    1.0000 </r>
       <r>   -2.0576    1.0000 </r>
       <r>   -2.0494    1.0000 </r>
       <r>   -2.0296    1.0000 </r>
       <r>   -2.0096    1.0000 </r>
       <r>   -2.0057    1.0000 </r>
       <r>   -1.9741    1.0000 </r>
       <r>   -1.9706    1.0000 </r>
       <r>   -1.9631    1.0000 </r>
       <r>   -1.9345    1.0000 </r>
       <r>   -1.9195    1.0000 </r>
       <r>   -1.8800    1.0000 </r>
       <r>   -1.8395    1.0000 </r>
       <r>   -1.8347    1.0000 </r>
       <r>   -1.7850    1.0000 </r>
       <r>   -1.7331    1.0000 </r>
       <r>   -1.7145    1.0000 </r>
       <r>   -1.7027    1.0000 </r>
       <r>   -1.6860    1.0000 </r>
       <r>   -1.6717    1.0000 </r>
       <r>   -1.6697    1.0000 </r>
       <r>   -1.6522    1.0000 </r>
       <r>   -1.6490    1.0000 </r>
       <r>   -1.6399    1.0000 </r>
       <r>   -1.6376    1.0000 </r>
       <r>   -1.5973    1.0000 </r>
       <r>   -1.5757    1.0000 </r>
       <r>   -1.5728    1.0000 </r>
       <r>   -1.5626    1.0000 </r>
       <r>   -1.5474    1.0000 </r>
       <r>   -1.5332    1.0000 </r>
       <r>   -1.5225    1.0000 </r>
       <r>   -1.5066    1.0000 </r>
       <r>   -1.4901    1.0000 </r>
       <r>   -1.4520    1.0000 </r>
       <r>   -1.4216    1.0000 </r>
       <r>   -1.4112    1.0000 </r>
       <r>   -1.3893    1.0000 </r>
       <r>   -1.3585    1.0000 </r>
       <r>   -1.3491    1.0000 </r>
       <r>   -1.2761    1.0000 </r>
       <r>   -1.2202    1.0000 </r>
       <r>   -1.1079    1.0000 </r>
       <r>   -0.9583    1.0000 </r>
       <r>   -0.9071    1.0000 </r>
       <r>   -0.8941    1.0000 </r>
       <r>   -0.7600    1.0000 </r>
       <r>   -0.7266    1.0000 </r>
       <r>   -0.5028    1.0000 </r>
       <r>   -0.4913    1.0000 </r>
       <r>   -0.4047    1.0000 </r>
       <r>   -0.2164    1.0000 </r>
       <r>    0.0024    1.0000 </r>
       <r>    0.0839    1.0000 </r>
       <r>    0.3962    0.7731 </r>
       <r>    0.8154   -0.0000 </r>
       <r>    0.9248   -0.0000 </r>
       <r>    1.2546   -0.0000 </r>
       <r>    1.3899   -0.0000 </r>
       <r>    1.5872   -0.0000 </r>
       <r>    1.7617   -0.0000 </r>
       <r>    1.8503   -0.0000 </r>
       <r>    1.8787   -0.0000 </r>
       <r>    2.1537   -0.0000 </r>
       <r>    2.7004    0.0000 </r>
       <r>    2.8869    0.0000 </r>
       <r>    2.8946    0.0000 </r>
       <r>    3.0489    0.0000 </r>
       <r>    3.4824    0.0000 </r>
       <r>    3.5614    0.0000 </r>
       <r>    3.6164    0.0000 </r>
       <r>    3.9192    0.0000 </r>
       <r>    4.0549    0.0000 </r>
       <r>    4.0633    0.0000 </r>
       <r>    4.2838    0.0000 </r>
       <r>    4.5264    0.0000 </r>
       <r>    4.5898    0.0000 </r>
       <r>    4.8116    0.0000 </r>
       <r>    4.8742    0.0000 </r>
       <r>    5.0790    0.0000 </r>
       <r>    5.1706    0.0000 </r>
       <r>    5.2093    0.0000 </r>
       <r>    5.2884    0.0000 </r>
       <r>    5.5733    0.0000 </r>
       <r>    5.6185    0.0000 </r>
       <r>    5.7103    0.0000 </r>
       <r>    5.8518    0.0000 </r>
       <r>    5.9226    0.0000 </r>
       <r>    6.1079    0.0000 </r>
       <r>    6.1610    0.0000 </r>
       <r>    6.4766    0.0000 </r>
       <r>    6.6992    0.0000 </r>
       <r>    6.7959    0.0000 </r>
       <r>    6.9239    0.0000 </r>
      </set>
      <set comment="kpoint 2">
       <r>  -17.1855    1.0000 </r>
       <r>   -8.2182    1.0000 </r>
       <r>   -7.0846    1.0000 </r>
       <r>   -6.8663    1.0000 </r>
       <r>   -6.3838    1.0000 </r>
       <r>   -6.3799    1.0000 </r>
       <r>   -6.1458    1.0000 </r>
       <r>   -6.1014    1.0000 </r>
       <r>   -6.0790    1.0000 </r>
       <r>   -6.0047    1.0000 </r>
       <r>   -5.9997    1.0000 </r>
       <r>   -5.9672    1.0000 </r>
       <r>   -5.8495    1.0000 </r>
       <r>   -5.7856    1.0000 </r>
       <r>   -5.6989    1.0000 </r>
       <r>   -5.6659    1.0000 </r>
       <r>   -5.6484    1.0000 </r>
       <r>   -5.5268    1.0000 </r>
       <r>   -5.4809    1.0000 </r>
       <r>   -5.4180    1.0000 </r>
       <r>   -5.3946    1.0000 </r>
       <r>   -5.3783    1.0000 </r>
       <r>   -5.3699    1.0000 </r>
       <r>   -5.2942    1.0000 </r>
       <r>   -5.2766    1.0000 </r>
       <r>   -5.2743    1.0000 </r>
       <r>   -5.2581    1.0000 </r>
       <r>   -5.2486    1.0000 </r>
       <r>   -5.2358    1.0000 </r>
       <r>   -5.2149    1.0000 </r>
       <r>   -5.1829    1.0000 </r>
       <r>   -5.1182    1.0000 </r>
       <r>   -5.0897    1.0000 </r>
       <r>   -5.0342    1.0000 </r>
       <r>   -5.0165    1.0000 </r>
       <r>   -4.9886    1.0000 </r>
       <r>   -4.9119    1.0000 </r>
       <r>   -4.8968    1.0000 </r>
       <r>   -4.8793    1.0000 </r>
       <r>   -4.8344    1.0000 </r>
       <r>   -4.8214    1.0000 </r>
       <r>   -4.7270    1.0000 </r>
       <r>   -4.7222    1.0000 </r>
       <r>   -4.6709    1.0000 </r>
       <r>   -4.6288    1.0000 </r>
       <r>   -4.6115    1.0000 </r>
       <r>   -4.5823    1.0000 </r>
       <r>   -4.5810    1.0000 </r>
       <r>   -4.4806    1.0000 </r>
       <r>   -4.4437    1.0000 </r>
       <r>   -4.4074    1.0000 </r>
       <r>   -4.3837    1.0000 </r>
       <r>   -4.3822    1.0000 </r>
       <r>   -4.3421    1.0000 </r>
       <r>   -4.3227    1.0000 </r>
       <r>   -4.2575    1.0000 </r>
       <r>   -4.2518    1.0000 </r>
       <r>   -4.2081    1.0000 </r>
       <r>   -4.1681    1.0000 </r>
       <r>   -4.1557    1.0000 </r>
       <r>   -4.1059    1.0000 </r>
       <r>   -4.0846    1.0000 </r>
       <r>   -4.0670    1.0000 </r>
       <r>   -4.0398    1.0000 </r>
       <r>   -4.0061    1.0000 </r>
       <r>   -3.9699    1.0000 </r>
       <r>   -3.9665    1.0000 </r>
       <r>   -3.9275    1.0000 </r>
       <r>   -3.9159    1.0000 </r>
       <r>   -3.8886    1.0000 </r>
       <r>   -3.8588    1.0000 </r>
       <r>   -3.8155    1.0000 </r>
       <r>   -3.7875    1.0000 </r>
       <r>   -3.7794    1.0000 </r>
       <r>   -3.7642    1.0000 </r>
       <r>   -3.7607    1.0000 </r>
       <r>   -3.7351    1.0000 </r>
       <r>   -3.7047    1.0000 </r>
       <r>   -3.6718    1.0000 </r>
       <r>   -3.6628    1.0000 </r>
       <r>   -3.6514    1.0000 </r>
       <r>   -3.6458    1.0000 </r>
       <r>   -3.6365    1.0000 </r>
       <r>   -3.6119    1.0000 </r>
       <r>   -3.5956    1.0000 </r>
       <r>   -3.5699    1.0000 </r>
       <r>   -3.5604    1.0000 </r>
       <r>   -3.5328    1.0000 </r>
       <r>   -3.4953    1.0000 </r>
       <r>   -3.4874    1.0000 </r>
       <r>   -3.4841    1.0000 </r>
       <r>   -3.4767    1.0000 </r>
       <r>   -3.4494    1.0000 </r>
       <r>   -3.4320    1.0000 </r>
       <r>   -3.4056    1.0000 </r>
       <r>   -3.4037    1.0000 </r>
       <r>   -3.3642    1.0000 </r>
       <r>   -3.3483    1.0000 </r>
       <r>   -3.3388    1.0000 </r>
       <r>   -3.3021    1.0000 </r>
       <r>   -3.2686    1.0000 </r>
       <r>   -3.2272    1.0000 </r>
       <r>   -3.2146    1.0000 </r>
       <r>   -3.1835    1.0000 </r>
       <r>   -3.1645    1.0000 </r>
       <r>   -3.1439    1.0000 </r>
       <r>   -3.1294    1.0000 </r>
       <r>   -3.1274    1.0000 </r>
       <r>   -3.1041    1.0000 </r>
       <r>   -3.0790    1.0000 </r>
       <r>   -3.0212    1.0000 </r>
       <r>   -2.9894    1.0000 </r>
       <r>   -2.9632    1.0000 </r>
       <r>   -2.9538    1.0000 </r>
       <r>   -2.9397    1.0000 </r>
       <r>   -2.9008    1.0000 </r>
       <r>   -2.8702    1.0000 </r>
       <r>   -2.8372    1.0000 </r>
       <r>   -2.8215    1.0000 </r>
       <r>   -2.8007    1.0000 </r>
       <r>   -2.7942    1.0000 </r>
       <r>   -2.7616    1.0000 </r>
       <r>   -2.7479    1.0000 </r>
       <r>   -2.7207    1.0000 </r>
       <r>   -2.7093    1.0000 </r>
       <r>   -2.6671    1.0000 </r>
       <r>   -2.6514    1.0000 </r>
       <r>   -2.6113    1.0000 </r>
       <r>   -2.5829    1.0000 </r>
       <r>   -2.5795    1.0000 </r>
       <r>   -2.5128    1.0000 </r>
       <r>   -2.5081    1.0000 </r>
       <r>   -2.4968    1.0000 </r>
       <r>   -2.4289    1.0000 </r>
       <r>   -2.4096    1.0000 </r>
       <r>   -2.3837    1.0000 </r>
       <r>   -2.3821    1.0000 </r>
       <r>   -2.3381    1.0000 </r>
       <r>   -2.3327    1.0000 </r>
       <r>   -2.3091    1.0000 </r>
       <r>   -2.2566    1.0000 </r>
       <r>   -2.2544    1.0000 </r>
       <r>   -2.2357    1.0000 </r>
       <r>   -2.2187    1.0000 </r>
       <r>   -2.1874    1.0000 </r>
       <r>   -2.1577    1.0000 </r>
       <r>   -2.1293    1.0000 </r>
       <r>   -2.1069    1.0000 </r>
       <r>   -2.0764    1.0000 </r>
       <r>   -2.0590    1.0000 </r>
       <r>   -2.0533    1.0000 </r>
       <r>   -2.0298    1.0000 </r>
       <r>   -2.0081    1.0000 </r>
       <r>   -2.0077    1.0000 </r>
       <r>   -1.9775    1.0000 </r>
       <r>   -1.9729    1.0000 </r>
       <r>   -1.9707    1.0000 </r>
       <r>   -1.9384    1.0000 </r>
       <r>   -1.9165    1.0000 </r>
       <r>   -1.8799    1.0000 </r>
       <r>   -1.8393    1.0000 </r>
       <r>   -1.8298    1.0000 </r>
       <r>   -1.7857    1.0000 </r>
       <r>   -1.7339    1.0000 </r>
       <r>   -1.7195    1.0000 </r>
       <r>   -1.7033    1.0000 </r>
       <r>   -1.6870    1.0000 </r>
       <r>   -1.6700    1.0000 </r>
       <r>   -1.6640    1.0000 </r>
       <r>   -1.6534    1.0000 </r>
       <r>   -1.6529    1.0000 </r>
       <r>   -1.6371    1.0000 </r>
       <r>   -1.6349    1.0000 </r>
       <r>   -1.5995    1.0000 </r>
       <r>   -1.5716    1.0000 </r>
       <r>   -1.5698    1.0000 </r>
       <r>   -1.5552    1.0000 </r>
       <r>   -1.5429    1.0000 </r>
       <r>   -1.5256    1.0000 </r>
       <r>   -1.5223    1.0000 </r>
       <r>   -1.5004    1.0000 </r>
       <r>   -1.4967    1.0000 </r>
       <r>   -1.4540    1.0000 </r>
       <r>   -1.4251    1.0000 </r>
       <r>   -1.4159    1.0000 </r>
       <r>   -1.3946    1.0000 </r>
       <r>   -1.3655    1.0000 </r>
       <r>   -1.3627    1.0000 </r>
       <r>   -1.2766    1.0000 </r>
       <r>   -1.2213    1.0000 </r>
       <r>   -1.0924    1.0000 </r>
       <r>   -0.9546    1.0000 </r>
       <r>   -0.9070    1.0000 </r>
       <r>   -0.8808    1.0000 </r>
       <r>   -0.7503    1.0000 </r>
       <r>   -0.7157    1.0000 </r>
       <r>   -0.5136    1.0000 </r>
       <r>   -0.5103    1.0000 </r>
       <r>   -0.4117    1.0000 </r>
       <r>   -0.2111    1.0000 </r>
       <r>    0.0092    1.0000 </r>
       <r>    0.0808    1.0000 </r>
       <r>    0.4118    0.6564 </r>
       <r>    0.8025   -0.0000 </r>
       <r>    0.9301   -0.0000 </r>
       <r>    1.2581   -0.0000 </r>
       <r>    1.3941   -0.0000 </r>
       <r>    1.5815   -0.0000 </r>
       <r>    1.7623   -0.0000 </r>
       <r>    1.8490   -0.0000 </r>
       <r>    1.8731   -0.0000 </r>
       <r>    2.1560   -0.0000 </r>
       <r>    2.6988    0.0000 </r>
       <r>    2.8788    0.0000 </r>
       <r>    2.8950    0.0000 </r>
       <r>    3.0559    0.0000 </r>
       <r>    3.4914    0.0000 </r>
       <r>    3.5594    0.0000 </r>
       <r>    3.5987    0.0000 </r>
       <r>    3.9330    0.0000 </r>
       <r>    4.0622    0.0000 </r>
       <r>    4.0633    0.0000 </r>
       <r>    4.2991    0.0000 </r>
       <r>    4.5207    0.0000 </r>
       <r>    4.5738    0.0000 </r>
       <r>    4.7957    0.0000 </r>
       <r>    4.8723    0.0000 </r>
       <r>    5.0839    0.0000 </r>
       <r>    5.1697    0.0000 </r>
       <r>    5.2050    0.0000 </r>
       <r>    5.2858    0.0000 </r>
       <r>    5.5675    0.0000 </r>
       <r>    5.6160    0.0000 </r>
       <r>    5.7118    0.0000 </r>
       <r>    5.8403    0.0000 </r>
       <r>    5.9350    0.0000 </r>
       <r>    6.0391    0.0000 </r>
       <r>    6.1599    0.0000 </r>
       <r>    6.3315    0.0000 </r>
       <r>    6.6453    0.0000 </r>
       <r>    6.7686    0.0000 </r>
       <r>    6.8654    0.0000 </r>
      </set>
      <set comment="kpoint 3">
       <r>  -17.1854    1.0000 </r>
       <r>   -8.2185    1.0000 </r>
       <r>   -7.0855    1.0000 </r>
       <r>   -6.8701    1.0000 </r>
       <r>   -6.3830    1.0000 </r>
       <r>   -6.3747    1.0000 </r>
       <r>   -6.1485    1.0000 </r>
       <r>   -6.1030    1.0000 </r>
       <r>   -6.0876    1.0000 </r>
       <r>   -6.0012    1.0000 </r>
       <r>   -5.9945    1.0000 </r>
       <r>   -5.9646    1.0000 </r>
       <r>   -5.8475    1.0000 </r>
       <r>   -5.7879    1.0000 </r>
       <r>   -5.7020    1.0000 </r>
       <r>   -5.6667    1.0000 </r>
       <r>   -5.6504    1.0000 </r>
       <r>   -5.5246    1.0000 </r>
       <r>   -5.4860    1.0000 </r>
       <r>   -5.4116    1.0000 </r>
       <r>   -5.3935    1.0000 </r>
       <r>   -5.3800    1.0000 </r>
       <r>   -5.3671    1.0000 </r>
       <r>   -5.2952    1.0000 </r>
       <r>   -5.2783    1.0000 </r>
       <r>   -5.2727    1.0000 </r>
       <r>   -5.2586    1.0000 </r>
       <r>   -5.2476    1.0000 </r>
       <r>   -5.2387    1.0000 </r>
       <r>   -5.2137    1.0000 </r>
       <r>   -5.1787    1.0000 </r>
       <r>   -5.1223    1.0000 </r>
       <r>   -5.0865    1.0000 </r>
       <r>   -5.0345    1.0000 </r>
       <r>   -5.0170    1.0000 </r>
       <r>   -4.9901    1.0000 </r>
       <r>   -4.9083    1.0000 </r>
       <r>   -4.8990    1.0000 </r>
       <r>   -4.8791    1.0000 </r>
       <r>   -4.8355    1.0000 </r>
       <r>   -4.8123    1.0000 </r>
       <r>   -4.7237    1.0000 </r>
       <r>   -4.7181    1.0000 </r>
       <r>   -4.6717    1.0000 </r>
       <r>   -4.6317    1.0000 </r>
       <r>   -4.6128    1.0000 </r>
       <r>   -4.5886    1.0000 </r>
       <r>   -4.5757    1.0000 </r>
       <r>   -4.4710    1.0000 </r>
       <r>   -4.4486    1.0000 </r>
       <r>   -4.4110    1.0000 </r>
       <r>   -4.3909    1.0000 </r>
       <r>   -4.3827    1.0000 </r>
       <r>   -4.3399    1.0000 </r>
       <r>   -4.3237    1.0000 </r>
       <r>   -4.2677    1.0000 </r>
       <r>   -4.2347    1.0000 </r>
       <r>   -4.2040    1.0000 </r>
       <r>   -4.1688    1.0000 </r>
       <r>   -4.1564    1.0000 </r>
       <r>   -4.0960    1.0000 </r>
       <r>   -4.0757    1.0000 </r>
       <r>   -4.0591    1.0000 </r>
       <r>   -4.0364    1.0000 </r>
       <r>   -4.0107    1.0000 </r>
       <r>   -3.9780    1.0000 </r>
       <r>   -3.9712    1.0000 </r>
       <r>   -3.9284    1.0000 </r>
       <r>   -3.9200    1.0000 </r>
       <r>   -3.8873    1.0000 </r>
       <r>   -3.8621    1.0000 </r>
       <r>   -3.8179    1.0000 </r>
       <r>   -3.8028    1.0000 </r>
       <r>   -3.7969    1.0000 </r>
       <r>   -3.7673    1.0000 </r>
       <r>   -3.7613    1.0000 </r>
       <r>   -3.7352    1.0000 </r>
       <r>   -3.7059    1.0000 </r>
       <r>   -3.6694    1.0000 </r>
       <r>   -3.6560    1.0000 </r>
       <r>   -3.6501    1.0000 </r>
       <r>   -3.6388    1.0000 </r>
       <r>   -3.6334    1.0000 </r>
       <r>   -3.6009    1.0000 </r>
       <r>   -3.5965    1.0000 </r>
       <r>   -3.5676    1.0000 </r>
       <r>   -3.5561    1.0000 </r>
       <r>   -3.5329    1.0000 </r>
       <r>   -3.4987    1.0000 </r>
       <r>   -3.4924    1.0000 </r>
       <r>   -3.4872    1.0000 </r>
       <r>   -3.4800    1.0000 </r>
       <r>   -3.4398    1.0000 </r>
       <r>   -3.4346    1.0000 </r>
       <r>   -3.4152    1.0000 </r>
       <r>   -3.4057    1.0000 </r>
       <r>   -3.3686    1.0000 </r>
       <r>   -3.3503    1.0000 </r>
       <r>   -3.3406    1.0000 </r>
       <r>   -3.3087    1.0000 </r>
       <r>   -3.2812    1.0000 </r>
       <r>   -3.2286    1.0000 </r>
       <r>   -3.2118    1.0000 </r>
       <r>   -3.1813    1.0000 </r>
       <r>   -3.1663    1.0000 </r>
       <r>   -3.1392    1.0000 </r>
       <r>   -3.1268    1.0000 </r>
       <r>   -3.1258    1.0000 </r>
       <r>   -3.1031    1.0000 </r>
       <r>   -3.0729    1.0000 </r>
       <r>   -3.0226    1.0000 </r>
       <r>   -2.9748    1.0000 </r>
       <r>   -2.9574    1.0000 </r>
       <r>   -2.9544    1.0000 </r>
       <r>   -2.9340    1.0000 </r>
       <r>   -2.9046    1.0000 </r>
       <r>   -2.8723    1.0000 </r>
       <r>   -2.8349    1.0000 </r>
       <r>   -2.8249    1.0000 </r>
       <r>   -2.8095    1.0000 </r>
       <r>   -2.7895    1.0000 </r>
       <r>   -2.7635    1.0000 </r>
       <r>   -2.7522    1.0000 </r>
       <r>   -2.7204    1.0000 </r>
       <r>   -2.7031    1.0000 </r>
       <r>   -2.6677    1.0000 </r>
       <r>   -2.6541    1.0000 </r>
       <r>   -2.6145    1.0000 </r>
       <r>   -2.5965    1.0000 </r>
       <r>   -2.5649    1.0000 </r>
       <r>   -2.5152    1.0000 </r>
       <r>   -2.5096    1.0000 </r>
       <r>   -2.4929    1.0000 </r>
       <r>   -2.4315    1.0000 </r>
       <r>   -2.4128    1.0000 </r>
       <r>   -2.3890    1.0000 </r>
       <r>   -2.3804    1.0000 </r>
       <r>   -2.3340    1.0000 </r>
       <r>   -2.3277    1.0000 </r>
       <r>   -2.3148    1.0000 </r>
       <r>   -2.2584    1.0000 </r>
       <r>   -2.2520    1.0000 </r>
       <r>   -2.2290    1.0000 </r>
       <r>   -2.2186    1.0000 </r>
       <r>   -2.1866    1.0000 </r>
       <r>   -2.1565    1.0000 </r>
       <r>   -2.1322    1.0000 </r>
       <r>   -2.1049    1.0000 </r>
       <r>   -2.0744    1.0000 </r>
       <r>   -2.0574    1.0000 </r>
       <r>   -2.0491    1.0000 </r>
       <r>   -2.0299    1.0000 </r>
       <r>   -2.0097    1.0000 </r>
       <r>   -2.0060    1.0000 </r>
       <r>   -1.9742    1.0000 </r>
       <r>   -1.9707    1.0000 </r>
       <r>   -1.9630    1.0000 </r>
       <r>   -1.9339    1.0000 </r>
       <r>   -1.9199    1.0000 </r>
       <r>   -1.8793    1.0000 </r>
       <r>   -1.8395    1.0000 </r>
       <r>   -1.8343    1.0000 </r>
       <r>   -1.7848    1.0000 </r>
       <r>   -1.7330    1.0000 </r>
       <r>   -1.7142    1.0000 </r>
       <r>   -1.7028    1.0000 </r>
       <r>   -1.6860    1.0000 </r>
       <r>   -1.6712    1.0000 </r>
       <r>   -1.6696    1.0000 </r>
       <r>   -1.6521    1.0000 </r>
       <r>   -1.6486    1.0000 </r>
       <r>   -1.6400    1.0000 </r>
       <r>   -1.6378    1.0000 </r>
       <r>   -1.5975    1.0000 </r>
       <r>   -1.5754    1.0000 </r>
       <r>   -1.5728    1.0000 </r>
       <r>   -1.5625    1.0000 </r>
       <r>   -1.5475    1.0000 </r>
       <r>   -1.5330    1.0000 </r>
       <r>   -1.5220    1.0000 </r>
       <r>   -1.5067    1.0000 </r>
       <r>   -1.4906    1.0000 </r>
       <r>   -1.4520    1.0000 </r>
       <r>   -1.4215    1.0000 </r>
       <r>   -1.4112    1.0000 </r>
       <r>   -1.3895    1.0000 </r>
       <r>   -1.3589    1.0000 </r>
       <r>   -1.3493    1.0000 </r>
       <r>   -1.2763    1.0000 </r>
       <r>   -1.2203    1.0000 </r>
       <r>   -1.1084    1.0000 </r>
       <r>   -0.9584    1.0000 </r>
       <r>   -0.9069    1.0000 </r>
       <r>   -0.8937    1.0000 </r>
       <r>   -0.7604    1.0000 </r>
       <r>   -0.7269    1.0000 </r>
       <r>   -0.5022    1.0000 </r>
       <r>   -0.4915    1.0000 </r>
       <r>   -0.4051    1.0000 </r>
       <r>   -0.2164    1.0000 </r>
       <r>    0.0016    1.0000 </r>
       <r>    0.0835    1.0000 </r>
       <r>    0.3963    0.7724 </r>
       <r>    0.8161   -0.0000 </r>
       <r>    0.9248   -0.0000 </r>
       <r>    1.2543   -0.0000 </r>
       <r>    1.3903   -0.0000 </r>
       <r>    1.5867   -0.0000 </r>
       <r>    1.7616   -0.0000 </r>
       <r>    1.8503   -0.0000 </r>
       <r>    1.8789   -0.0000 </r>
       <r>    2.1542   -0.0000 </r>
       <r>    2.7008    0.0000 </r>
       <r>    2.8875    0.0000 </r>
       <r>    2.8946    0.0000 </r>
       <r>    3.0484    0.0000 </r>
       <r>    3.4811    0.0000 </r>
       <r>    3.5610    0.0000 </r>
       <r>    3.6166    0.0000 </r>
       <r>    3.9195    0.0000 </r>
       <r>    4.0549    0.0000 </r>
       <r>    4.0646    0.0000 </r>
       <r>    4.2842    0.0000 </r>
       <r>    4.5263    0.0000 </r>
       <r>    4.5894    0.0000 </r>
       <r>    4.8111    0.0000 </r>
       <r>    4.8739    0.0000 </r>
       <r>    5.0792    0.0000 </r>
       <r>    5.1705    0.0000 </r>
       <r>    5.2095    0.0000 </r>
       <r>    5.2880    0.0000 </r>
       <r>    5.5730    0.0000 </r>
       <r>    5.6185    0.0000 </r>
       <r>    5.7099    0.0000 </r>
       <r>    5.8470    0.0000 </r>
       <r>    5.9280    0.0000 </r>
       <r>    6.0734    0.0000 </r>
       <r>    6.1761    0.0000 </r>
       <r>    6.3161    0.0000 </r>
       <r>    6.6705    0.0000 </r>
       <r>    6.8049    0.0000 </r>
       <r>    6.9342    0.0000 </r>
      </set>
      <set comment="kpoint 4">
       <r>  -17.1853    1.0000 </r>
       <r>   -7.8336    1.0000 </r>
       <r>   -7.1669    1.0000 </r>
       <r>   -7.1078    1.0000 </r>
       <r>   -6.7226    1.0000 </r>
       <r>   -6.2000    1.0000 </r>
       <r>   -6.0943    1.0000 </r>
       <r>   -5.9584    1.0000 </r>
       <r>   -5.9390    1.0000 </r>
       <r>   -5.8101    1.0000 </r>
       <r>   -5.7871    1.0000 </r>
       <r>   -5.7801    1.0000 </r>
       <r>   -5.7699    1.0000 </r>
       <r>   -5.7598    1.0000 </r>
       <r>   -5.7377    1.0000 </r>
       <r>   -5.6197    1.0000 </r>
       <r>   -5.5445    1.0000 </r>
       <r>   -5.5271    1.0000 </r>
       <r>   -5.5075    1.0000 </r>
       <r>   -5.4645    1.0000 </r>
       <r>   -5.4256    1.0000 </r>
       <r>   -5.3957    1.0000 </r>
       <r>   -5.3572    1.0000 </r>
       <r>   -5.3182    1.0000 </r>
       <r>   -5.3069    1.0000 </r>
       <r>   -5.2848    1.0000 </r>
       <r>   -5.2804    1.0000 </r>
       <r>   -5.2751    1.0000 </r>
       <r>   -5.2163    1.0000 </r>
       <r>   -5.2098    1.0000 </r>
       <r>   -5.1754    1.0000 </r>
       <r>   -5.1584    1.0000 </r>
       <r>   -5.0952    1.0000 </r>
       <r>   -5.0729    1.0000 </r>
       <r>   -5.0138    1.0000 </r>
       <r>   -4.9880    1.0000 </r>
       <r>   -4.9696    1.0000 </r>
       <r>   -4.9232    1.0000 </r>
       <r>   -4.8631    1.0000 </r>
       <r>   -4.7525    1.0000 </r>
       <r>   -4.7154    1.0000 </r>
       <r>   -4.6859    1.0000 </r>
       <r>   -4.6527    1.0000 </r>
       <r>   -4.6337    1.0000 </r>
       <r>   -4.6119    1.0000 </r>
       <r>   -4.5873    1.0000 </r>
       <r>   -4.5835    1.0000 </r>
       <r>   -4.5620    1.0000 </r>
       <r>   -4.5242    1.0000 </r>
       <r>   -4.4829    1.0000 </r>
       <r>   -4.4508    1.0000 </r>
       <r>   -4.4143    1.0000 </r>
       <r>   -4.3842    1.0000 </r>
       <r>   -4.3765    1.0000 </r>
       <r>   -4.3600    1.0000 </r>
       <r>   -4.3225    1.0000 </r>
       <r>   -4.2976    1.0000 </r>
       <r>   -4.2900    1.0000 </r>
       <r>   -4.2786    1.0000 </r>
       <r>   -4.2545    1.0000 </r>
       <r>   -4.2057    1.0000 </r>
       <r>   -4.1894    1.0000 </r>
       <r>   -4.1584    1.0000 </r>
       <r>   -4.1281    1.0000 </r>
       <r>   -4.1004    1.0000 </r>
       <r>   -4.0891    1.0000 </r>
       <r>   -4.0657    1.0000 </r>
       <r>   -4.0606    1.0000 </r>
       <r>   -4.0169    1.0000 </r>
       <r>   -3.9455    1.0000 </r>
       <r>   -3.9165    1.0000 </r>
       <r>   -3.8828    1.0000 </r>
       <r>   -3.8722    1.0000 </r>
       <r>   -3.8618    1.0000 </r>
       <r>   -3.8361    1.0000 </r>
       <r>   -3.8141    1.0000 </r>
       <r>   -3.7996    1.0000 </r>
       <r>   -3.7741    1.0000 </r>
       <r>   -3.7681    1.0000 </r>
       <r>   -3.7166    1.0000 </r>
       <r>   -3.6743    1.0000 </r>
       <r>   -3.6655    1.0000 </r>
       <r>   -3.6413    1.0000 </r>
       <r>   -3.6346    1.0000 </r>
       <r>   -3.6256    1.0000 </r>
       <r>   -3.5906    1.0000 </r>
       <r>   -3.5714    1.0000 </r>
       <r>   -3.5377    1.0000 </r>
       <r>   -3.5143    1.0000 </r>
       <r>   -3.4981    1.0000 </r>
       <r>   -3.4852    1.0000 </r>
       <r>   -3.4834    1.0000 </r>
       <r>   -3.4680    1.0000 </r>
       <r>   -3.4458    1.0000 </r>
       <r>   -3.4329    1.0000 </r>
       <r>   -3.4137    1.0000 </r>
       <r>   -3.3991    1.0000 </r>
       <r>   -3.3900    1.0000 </r>
       <r>   -3.3628    1.0000 </r>
       <r>   -3.3585    1.0000 </r>
       <r>   -3.3353    1.0000 </r>
       <r>   -3.3047    1.0000 </r>
       <r>   -3.2914    1.0000 </r>
       <r>   -3.2446    1.0000 </r>
       <r>   -3.2349    1.0000 </r>
       <r>   -3.2180    1.0000 </r>
       <r>   -3.1926    1.0000 </r>
       <r>   -3.1634    1.0000 </r>
       <r>   -3.1525    1.0000 </r>
       <r>   -3.1278    1.0000 </r>
       <r>   -3.1091    1.0000 </r>
       <r>   -3.0899    1.0000 </r>
       <r>   -3.0697    1.0000 </r>
       <r>   -3.0549    1.0000 </r>
       <r>   -3.0427    1.0000 </r>
       <r>   -2.9377    1.0000 </r>
       <r>   -2.9297    1.0000 </r>
       <r>   -2.9177    1.0000 </r>
       <r>   -2.8800    1.0000 </r>
       <r>   -2.8628    1.0000 </r>
       <r>   -2.8277    1.0000 </r>
       <r>   -2.8040    1.0000 </r>
       <r>   -2.8003    1.0000 </r>
       <r>   -2.7769    1.0000 </r>
       <r>   -2.7557    1.0000 </r>
       <r>   -2.7369    1.0000 </r>
       <r>   -2.6569    1.0000 </r>
       <r>   -2.6452    1.0000 </r>
       <r>   -2.6239    1.0000 </r>
       <r>   -2.5905    1.0000 </r>
       <r>   -2.5523    1.0000 </r>
       <r>   -2.5451    1.0000 </r>
       <r>   -2.5290    1.0000 </r>
       <r>   -2.4904    1.0000 </r>
       <r>   -2.4848    1.0000 </r>
       <r>   -2.4578    1.0000 </r>
       <r>   -2.4270    1.0000 </r>
       <r>   -2.3846    1.0000 </r>
       <r>   -2.3580    1.0000 </r>
       <r>   -2.3318    1.0000 </r>
       <r>   -2.3133    1.0000 </r>
       <r>   -2.2835    1.0000 </r>
       <r>   -2.2469    1.0000 </r>
       <r>   -2.2279    1.0000 </r>
       <r>   -2.2009    1.0000 </r>
[...]
       <r>    6.0019    0.0000 </r>
       <r>    6.0389    0.0000 </r>
       <r>    6.1148    0.0000 </r>
       <r>    6.6254    0.0000 </r>
       <r>    6.6960    0.0000 </r>
      </set>
     </set>
    </set>
   </array>
  </eigenvalues>
  <separator name="orbital magnetization" >
   <v name="MAGDIPOLOUT">      0.00000000      0.00000000      0.00000000</v>
  </separator>
  <dos>
   <i name="efermi">      0.43062983 </i>
   <total>
    <array>
     <dimension dim="1">gridpoints</dimension>
     <dimension dim="2">spin</dimension>
     <field>energy</field>
     <field>total</field>
     <field>integrated</field>
     <set>
      <set comment="spin 1">
       <r>   -18.3914     0.0000     0.0000 </r>
       <r>   -18.3030     0.0000     0.0000 </r>
       <r>   -18.2146     0.0000     0.0000 </r>
       <r>   -18.1261     0.0000     0.0000 </r>
       <r>   -18.0377    -0.0000    -0.0000 </r>
       <r>   -17.9492    -0.0000    -0.0000 </r>
       <r>   -17.8608    -0.0000    -0.0000 </r>
       <r>   -17.7724    -0.0000    -0.0000 </r>
       <r>   -17.6839    -0.0000    -0.0000 </r>
       <r>   -17.5955    -0.0000    -0.0000 </r>
       <r>   -17.5071    -0.0006    -0.0001 </r>
       <r>   -17.4186    -0.0529    -0.0047 </r>
       <r>   -17.3302    -0.6223    -0.0598 </r>
       <r>   -17.2417     2.8657     0.1937 </r>
       <r>   -17.1533    14.9153     1.5128 </r>
       <r>   -17.0649     6.3097     2.0708 </r>
       <r>   -16.9764    -0.6664     2.0119 </r>
       <r>   -16.8880    -0.1316     2.0002 </r>
       <r>   -16.7995    -0.0024     2.0000 </r>
       <r>   -16.7111    -0.0000     2.0000 </r>
       <r>   -16.6227    -0.0000     2.0000 </r>
       <r>   -16.5342    -0.0000     2.0000 </r>
       <r>   -16.4458     0.0000     2.0000 </r>
       <r>   -16.3573     0.0000     2.0000 </r>
       <r>   -16.2689     0.0000     2.0000 </r>
       <r>   -16.1805     0.0000     2.0000 </r>
       <r>   -16.0920     0.0000     2.0000 </r>
       <r>   -16.0036     0.0000     2.0000 </r>
       <r>   -15.9152     0.0000     2.0000 </r>
       <r>   -15.8267     0.0000     2.0000 </r>
       <r>   -15.7383     0.0000     2.0000 </r>
       <r>   -15.6498     0.0000     2.0000 </r>
       <r>   -15.5614     0.0000     2.0000 </r>
       <r>   -15.4730     0.0000     2.0000 </r>
       <r>   -15.3845     0.0000     2.0000 </r>
       <r>   -15.2961     0.0000     2.0000 </r>
       <r>   -15.2076     0.0000     2.0000 </r>
       <r>   -15.1192     0.0000     2.0000 </r>
       <r>   -15.0308     0.0000     2.0000 </r>
       <r>   -14.9423     0.0000     2.0000 </r>
       <r>   -14.8539     0.0000     2.0000 </r>
       <r>   -14.7655     0.0000     2.0000 </r>
       <r>   -14.6770     0.0000     2.0000 </r>
       <r>   -14.5886     0.0000     2.0000 </r>
       <r>   -14.5001     0.0000     2.0000 </r>
       <r>   -14.4117     0.0000     2.0000 </r>
       <r>   -14.3233     0.0000     2.0000 </r>
       <r>   -14.2348     0.0000     2.0000 </r>
       <r>   -14.1464     0.0000     2.0000 </r>
       <r>   -14.0579     0.0000     2.0000 </r>
       <r>   -13.9695     0.0000     2.0000 </r>
       <r>   -13.8811     0.0000     2.0000 </r>
       <r>   -13.7926     0.0000     2.0000 </r>
       <r>   -13.7042     0.0000     2.0000 </r>
       <r>   -13.6158     0.0000     2.0000 </r>
       <r>   -13.5273     0.0000     2.0000 </r>
       <r>   -13.4389     0.0000     2.0000 </r>
       <r>   -13.3504     0.0000     2.0000 </r>
       <r>   -13.2620     0.0000     2.0000 </r>
       <r>   -13.1736     0.0000     2.0000 </r>
       <r>   -13.0851     0.0000     2.0000 </r>
       <r>   -12.9967     0.0000     2.0000 </r>
       <r>   -12.9082     0.0000     2.0000 </r>
       <r>   -12.8198     0.0000     2.0000 </r>
       <r>   -12.7314     0.0000     2.0000 </r>
       <r>   -12.6429     0.0000     2.0000 </r>
       <r>   -12.5545     0.0000     2.0000 </r>
       <r>   -12.4661     0.0000     2.0000 </r>
       <r>   -12.3776     0.0000     2.0000 </r>
       <r>   -12.2892     0.0000     2.0000 </r>
       <r>   -12.2007     0.0000     2.0000 </r>
       <r>   -12.1123     0.0000     2.0000 </r>
       <r>   -12.0239     0.0000     2.0000 </r>
       <r>   -11.9354     0.0000     2.0000 </r>
       <r>   -11.8470     0.0000     2.0000 </r>
       <r>   -11.7585     0.0000     2.0000 </r>
       <r>   -11.6701     0.0000     2.0000 </r>
       <r>   -11.5817     0.0000     2.0000 </r>
       <r>   -11.4932     0.0000     2.0000 </r>
       <r>   -11.4048     0.0000     2.0000 </r>
       <r>   -11.3163     0.0000     2.0000 </r>
       <r>   -11.2279     0.0000     2.0000 </r>
       <r>   -11.1395     0.0000     2.0000 </r>
       <r>   -11.0510     0.0000     2.0000 </r>
       <r>   -10.9626     0.0000     2.0000 </r>
       <r>   -10.8742     0.0000     2.0000 </r>
       <r>   -10.7857     0.0000     2.0000 </r>
       <r>   -10.6973     0.0000     2.0000 </r>
       <r>   -10.6088     0.0000     2.0000 </r>
       <r>   -10.5204     0.0000     2.0000 </r>
       <r>   -10.4320     0.0000     2.0000 </r>
       <r>   -10.3435     0.0000     2.0000 </r>
       <r>   -10.2551     0.0000     2.0000 </r>
       <r>   -10.1666     0.0000     2.0000 </r>
       <r>   -10.0782     0.0000     2.0000 </r>
       <r>    -9.9898     0.0000     2.0000 </r>
       <r>    -9.9013     0.0000     2.0000 </r>
       <r>    -9.8129     0.0000     2.0000 </r>
       <r>    -9.7245     0.0000     2.0000 </r>
       <r>    -9.6360     0.0000     2.0000 </r>
       <r>    -9.5476     0.0000     2.0000 </r>
       <r>    -9.4591     0.0000     2.0000 </r>
       <r>    -9.3707     0.0000     2.0000 </r>
       <r>    -9.2823     0.0000     2.0000 </r>
       <r>    -9.1938     0.0000     2.0000 </r>
       <r>    -9.1054    -0.0000     2.0000 </r>
       <r>    -9.0169    -0.0000     2.0000 </r>
       <r>    -8.9285    -0.0000     2.0000 </r>
       <r>    -8.8401    -0.0000     2.0000 </r>
       <r>    -8.7516    -0.0000     2.0000 </r>
       <r>    -8.6632    -0.0000     2.0000 </r>
       <r>    -8.5748    -0.0000     2.0000 </r>
       <r>    -8.4863    -0.0056     1.9995 </r>
       <r>    -8.3979    -0.1599     1.9854 </r>
       <r>    -8.3094     0.0171     1.9869 </r>
       <r>    -8.2210     5.5549     2.4781 </r>
       <r>    -8.1326     5.9398     3.0034 </r>
       <r>    -8.0441     0.0860     3.0111 </r>
       <r>    -7.9557    -0.5185     2.9652 </r>
       <r>    -7.8672     3.0443     3.2344 </r>
       <r>    -7.7788     7.4891     3.8968 </r>
       <r>    -7.6904     1.5113     4.0304 </r>
       <r>    -7.6019    -0.3157     4.0025 </r>
       <r>    -7.5135    -0.0280     4.0000 </r>
       <r>    -7.4251    -0.0099     3.9991 </r>
       <r>    -7.3366    -0.2471     3.9773 </r>
       <r>    -7.2482    -0.2626     3.9541 </r>
       <r>    -7.1597     8.5142     4.7071 </r>
       <r>    -7.0713    19.3272     6.4163 </r>
       <r>    -6.9829     7.0599     7.0407 </r>
       <r>    -6.8944     2.8174     7.2899 </r>
       <r>    -6.8060     7.3043     7.9359 </r>
       <r>    -6.7175     7.2158     8.5740 </r>
       <r>    -6.6291     5.0101     9.0171 </r>
       <r>    -6.5407    -0.5534     8.9682 </r>
       <r>    -6.4522     1.0915     9.0647 </r>
       <r>    -6.3638    13.2886    10.2399 </r>
       <r>    -6.2753     8.5722    10.9980 </r>
       <r>    -6.1869     8.4032    11.7412 </r>
       <r>    -6.0985    27.2297    14.1494 </r>
       <r>    -6.0100    33.8516    17.1431 </r>
       <r>    -5.9216    33.8888    20.1402 </r>
       <r>    -5.8332    26.4873    22.4827 </r>
       <r>    -5.7447    54.2825    27.2834 </r>
       <r>    -5.6563    43.2122    31.1050 </r>
       <r>    -5.5678    28.2057    33.5995 </r>
       <r>    -5.4794    42.1891    37.3306 </r>
       <r>    -5.3910    56.0598    42.2885 </r>
       <r>    -5.3025    78.5823    49.2382 </r>
       <r>    -5.2141    98.9821    57.9921 </r>
       <r>    -5.1256    64.0932    63.6604 </r>
       <r>    -5.0372    49.2103    68.0125 </r>
       <r>    -4.9488    55.0477    72.8808 </r>
       <r>    -4.8603    49.2979    77.2406 </r>
       <r>    -4.7719    35.6044    80.3894 </r>
       <r>    -4.6835    48.7208    84.6982 </r>
       <r>    -4.5950    78.1164    91.6068 </r>
       <r>    -4.5066    62.8281    97.1632 </r>
       <r>    -4.4181    57.2125   102.2230 </r>
       <r>    -4.3297    80.6640   109.3568 </r>
       <r>    -4.2413    74.2769   115.9257 </r>
       <r>    -4.1528    67.3499   121.8821 </r>
       <r>    -4.0644    77.6689   128.7510 </r>
       <r>    -3.9759    70.6309   134.9975 </r>
       <r>    -3.8875    71.2285   141.2968 </r>
       <r>    -3.7991    90.5753   149.3072 </r>
       <r>    -3.7106    89.0996   157.1870 </r>
       <r>    -3.6222   101.4532   166.1594 </r>
       <r>    -3.5338   107.3513   175.6534 </r>
       <r>    -3.4453   119.9770   186.2640 </r>
       <r>    -3.3569   114.2580   196.3688 </r>
       <r>    -3.2684    83.1516   203.7227 </r>
       <r>    -3.1800    83.0225   211.0650 </r>
       <r>    -3.0916   100.2760   219.9333 </r>
       <r>    -3.0031    69.9597   226.1204 </r>
       <r>    -2.9147    65.6684   231.9281 </r>
       <r>    -2.8262    86.2712   239.5578 </r>
       <r>    -2.7378    91.6239   247.6609 </r>
       <r>    -2.6494    69.7232   253.8271 </r>
       <r>    -2.5609    72.9911   260.2823 </r>
       <r>    -2.4725    77.9292   267.1743 </r>
       <r>    -2.3841    72.8307   273.6153 </r>
       <r>    -2.2956    77.9249   280.5069 </r>
       <r>    -2.2072    86.5054   288.1573 </r>
       <r>    -2.1187    93.7227   296.4460 </r>
       <r>    -2.0303    91.4906   304.5373 </r>
       <r>    -1.9419    94.6580   312.9087 </r>
       <r>    -1.8534    72.2233   319.2961 </r>
       <r>    -1.7650    56.0736   324.2551 </r>
       <r>    -1.6765    91.7393   332.3684 </r>
       <r>    -1.5881   134.5028   344.2637 </r>
       <r>    -1.4997   135.6641   356.2616 </r>
       <r>    -1.4112    95.7620   364.7307 </r>
       <r>    -1.3228    80.3776   371.8391 </r>
       <r>    -1.2343    47.8088   376.0673 </r>
       <r>    -1.1459    26.0796   378.3737 </r>
       <r>    -1.0575    14.5701   379.6623 </r>
       <r>    -0.9690    16.3210   381.1057 </r>
       <r>    -0.8806    33.0244   384.0263 </r>
       <r>    -0.7922    24.2213   386.1684 </r>
       <r>    -0.7037    21.2900   388.0513 </r>
       <r>    -0.6153    11.4639   389.0651 </r>
       <r>    -0.5268    14.2746   390.3276 </r>
       <r>    -0.4384    26.7033   392.6892 </r>
       <r>    -0.3500    14.0133   393.9285 </r>
       <r>    -0.2615     3.2031   394.2118 </r>
       <r>    -0.1731    13.3744   395.3946 </r>
       <r>    -0.0846     6.7967   395.9957 </r>
       <r>     0.0038     7.8207   396.6873 </r>
       <r>     0.0922    19.5865   398.4195 </r>
       <r>     0.1807     6.8790   399.0279 </r>
       <r>     0.2691     0.9374   399.1108 </r>
       <r>     0.3575    12.4149   400.2087 </r>
       <r>     0.4460    24.7269   402.3956 </r>
       <r>     0.5344    16.9491   403.8945 </r>
       <r>     0.6229     1.1598   403.9971 </r>
       <r>     0.7113     3.2431   404.2839 </r>
       <r>     0.7997    16.9963   405.7870 </r>
       <r>     0.8882    16.7522   407.2686 </r>
       <r>     0.9766    18.8944   408.9396 </r>
       <r>     1.0651    17.4827   410.4857 </r>
       <r>     1.1535     5.7029   410.9901 </r>
       <r>     1.2419     8.2443   411.7192 </r>
       <r>     1.3304    14.2013   412.9751 </r>
       <r>     1.4188    11.7045   414.0103 </r>
       <r>     1.5072    10.8258   414.9677 </r>
       <r>     1.5957     7.1830   415.6029 </r>
       <r>     1.6841     4.6092   416.0106 </r>
       <r>     1.7726     6.3190   416.5694 </r>
       <r>     1.8610    16.2068   418.0027 </r>
       <r>     1.9494    17.6727   419.5657 </r>
       <r>     2.0379     5.0968   420.0164 </r>
       <r>     2.1263    12.5892   421.1298 </r>
       <r>     2.2148    24.1311   423.2639 </r>
       <r>     2.3032     9.4053   424.0957 </r>
       <r>     2.3916     9.4588   424.9322 </r>
       <r>     2.4801    10.9576   425.9013 </r>
       <r>     2.5685     0.7908   425.9712 </r>
       <r>     2.6569     5.6482   426.4708 </r>
       <r>     2.7454    15.2596   427.8203 </r>
       <r>     2.8338    21.0507   429.6820 </r>
       <r>     2.9223    29.9554   432.3312 </r>
       <r>     3.0107    15.7730   433.7261 </r>
       <r>     3.0991    12.7603   434.8546 </r>
       <r>     3.1876     1.9562   435.0277 </r>
       <r>     3.2760    -0.1765   435.0120 </r>
       <r>     3.3645     7.5110   435.6763 </r>
       <r>     3.4529    14.1149   436.9246 </r>
       <r>     3.5413    15.5510   438.2999 </r>
       <r>     3.6298    16.6663   439.7739 </r>
       <r>     3.7182    12.0493   440.8395 </r>
       <r>     3.8067     1.6853   440.9885 </r>
       <r>     3.8951     2.7018   441.2275 </r>
       <r>     3.9835    14.8102   442.5373 </r>
       <r>     4.0720    26.1518   444.8501 </r>
       <r>     4.1604    20.3919   446.6535 </r>
       <r>     4.2488     6.6376   447.2406 </r>
       <r>     4.3373    12.1920   448.3188 </r>
       <r>     4.4257     7.7054   449.0003 </r>
       <r>     4.5142    11.8388   450.0473 </r>
       <r>     4.6026    17.6633   451.6094 </r>
       <r>     4.6910     6.0542   452.1448 </r>
       <r>     4.7795    14.1206   453.3936 </r>
       <r>     4.8679    21.9012   455.3305 </r>
       <r>     4.9564     7.7363   456.0147 </r>
       <r>     5.0448     1.8735   456.1804 </r>
       <r>     5.1332    10.2639   457.0881 </r>
       <r>     5.2217    16.3520   458.5343 </r>
       <r>     5.3101    15.0304   459.8635 </r>
       <r>     5.3985    16.1354   461.2905 </r>
       <r>     5.4870    15.7191   462.6807 </r>
       <r>     5.5754    11.5632   463.7033 </r>
       <r>     5.6639    15.7198   465.0936 </r>
       <r>     5.7523    18.4360   466.7240 </r>
       <r>     5.8407    23.7457   468.8241 </r>
       <r>     5.9292    34.3433   471.8613 </r>
       <r>     6.0176    25.6182   474.1270 </r>
       <r>     6.1061    23.8971   476.2404 </r>
       <r>     6.1945    17.1438   477.7566 </r>
       <r>     6.2829     4.8385   478.1845 </r>
       <r>     6.3714     4.3128   478.5659 </r>
       <r>     6.4598     2.4102   478.7791 </r>
       <r>     6.5482     1.9359   478.9503 </r>
       <r>     6.6367    10.8385   479.9088 </r>
       <r>     6.7251    20.1312   481.6892 </r>
       <r>     6.8136    12.3197   482.7787 </r>
       <r>     6.9020     8.0299   483.4889 </r>
       <r>     6.9904     5.4451   483.9704 </r>
       <r>     7.0789     0.5643   484.0203 </r>
       <r>     7.1673    -0.2149   484.0013 </r>
       <r>     7.2558    -0.0150   484.0000 </r>
       <r>     7.3442    -0.0002   484.0000 </r>
       <r>     7.4326    -0.0000   484.0000 </r>
       <r>     7.5211    -0.0000   484.0000 </r>
       <r>     7.6095    -0.0000   484.0000 </r>
       <r>     7.6980     0.0000   484.0000 </r>
       <r>     7.7864     0.0000   484.0000 </r>
       <r>     7.8748     0.0000   484.0000 </r>
       <r>     7.9633     0.0000   484.0000 </r>
       <r>     8.0517     0.0000   484.0000 </r>
       <r>     8.1401     0.0000   484.0000 </r>
      </set>
     </set>
    </array>
   </total>
  </dos>
 </calculation>
 <structure name="finalpos" >
  <crystal>
   <varray name="basis" >
    <v>       8.80347943       0.00000000       0.00000000 </v>
    <v>       4.40173971       7.62403682       0.00000000 </v>
    <v>       0.00000000       0.00000000      23.18801085 </v>
   </varray>
   <i name="volume">   1556.33410245 </i>
   <varray name="rec_basis" >
    <v>       0.11359145      -0.06558205       0.00000000 </v>
    <v>       0.00000000       0.13116411       0.00000000 </v>
    <v>       0.00000000       0.00000000       0.04312573 </v>
   </varray>
  </crystal>
  <varray name="positions" >
   <v>       0.00000000       0.00000000       0.00000000 </v>
   <v>       0.33333333       0.00000000       0.00000000 </v>
   <v>       0.66666667       0.00000000       0.00000000 </v>
   <v>       0.00000000       0.33333333       0.00000000 </v>
   <v>       0.33333333       0.33333333       0.00000000 </v>
   <v>       0.66666667       0.33333333       0.00000000 </v>
   <v>       0.00000000       0.66666667       0.00000000 </v>
   <v>       0.33333333       0.66666667       0.00000000 </v>
   <v>       0.66666667       0.66666667       0.00000000 </v>
   <v>       0.11111111       0.11111111       0.10332942 </v>
   <v>       0.44444444       0.11111111       0.10332942 </v>
   <v>       0.77777778       0.11111111       0.10332942 </v>
   <v>       0.11111111       0.44444444       0.10332942 </v>
   <v>       0.44444444       0.44444444       0.10332942 </v>
   <v>       0.77777778       0.44444444       0.10332942 </v>
   <v>       0.11111111       0.77777778       0.10332942 </v>
   <v>       0.44444444       0.77777778       0.10332942 </v>
   <v>       0.77777778       0.77777778       0.10332942 </v>
   <v>       0.89044316       0.22510833       0.20685965 </v>
   <v>       0.22021909       0.22635370       0.20945477 </v>
   <v>       0.55122131       0.22502314       0.20685344 </v>
   <v>       0.88990964       0.55460660       0.20688010 </v>
   <v>       0.22253506       0.55452627       0.20688450 </v>
   <v>       0.55416293       0.55859085       0.20400592 </v>
   <v>       0.88829118       0.89042592       0.20435126 </v>
   <v>       0.22168731       0.89475624       0.20676906 </v>
   <v>       0.55057966       0.89475247       0.20676003 </v>
   <v>       0.99565080       0.00066193       0.30856396 </v>
   <v>       0.34001567       0.98719080       0.31612028 </v>
   <v>       0.67068172       0.00078714       0.30860147 </v>
   <v>       0.97594411       0.34663060       0.31751987 </v>
   <v>       0.34402324       0.34647718       0.31769388 </v>
   <v>       0.66233380       0.34188745       0.30773059 </v>
   <v>       0.99707397       0.67279241       0.30830154 </v>
   <v>       0.33304779       0.67110363       0.30842664 </v>
   <v>       0.66263930       0.67111658       0.30836152 </v>
   <v>       0.21881613       0.22872352       0.36432634 </v>
  </varray>
  <varray name="selective"  type="logical" >
   <v type="logical" >  F  F  F </v>
   <v type="logical" >  F  F  F </v>
   <v type="logical" >  F  F  F </v>
   <v type="logical" >  F  F  F </v>
   <v type="logical" >  F  F  F </v>
   <v type="logical" >  F  F  F </v>
   <v type="logical" >  F  F  F </v>
   <v type="logical" >  F  F  F </v>
   <v type="logical" >  F  F  F </v>
   <v type="logical" >  F  F  F </v>
   <v type="logical" >  F  F  F </v>
   <v type="logical" >  F  F  F </v>
   <v type="logical" >  F  F  F </v>
   <v type="logical" >  F  F  F </v>
   <v type="logical" >  F  F  F </v>
   <v type="logical" >  F  F  F </v>
   <v type="logical" >  F  F  F </v>
   <v type="logical" >  F  F  F </v>
   <v type="logical" >  T  T  T </v>
   <v type="logical" >  T  T  T </v>
   <v type="logical" >  T  T  T </v>
   <v type="logical" >  T  T  T </v>
   <v type="logical" >  T  T  T </v>
   <v type="logical" >  T  T  T </v>
   <v type="logical" >  T  T  T </v>
   <v type="logical" >  T  T  T </v>
   <v type="logical" >  T  T  T </v>
   <v type="logical" >  T  T  T </v>
   <v type="logical" >  T  T  T </v>
   <v type="logical" >  T  T  T </v>
   <v type="logical" >  T  T  T </v>
   <v type="logical" >  T  T  T </v>
   <v type="logical" >  T  T  T </v>
   <v type="logical" >  T  T  T </v>
   <v type="logical" >  T  T  T </v>
   <v type="logical" >  T  T  T </v>
   <v type="logical" >  T  T  T </v>
  </varray>
  <nose>
   <v>      -3.00000000       0.00000000       0.00010000       0.00010000 </v>
  </nose>
 </structure>
</modeling>
