unknown system                          
           1
     8.803479    0.000000    0.000000
     4.401740    7.624037    0.000000
     0.000000    0.000000   23.188011
   Au   O 
    36     1
Direct configuration=     1
   0.00000000  0.00000000  0.00000000
   0.33333333  0.00000000  0.00000000
   0.66666667  0.00000000  0.00000000
   0.00000000  0.33333333  0.00000000
   0.33333333  0.33333333  0.00000000
   0.66666667  0.33333333  0.00000000
   0.00000000  0.66666667  0.00000000
   0.33333333  0.66666667  0.00000000
   0.66666667  0.66666667  0.00000000
   0.11111111  0.11111111  0.10332942
   0.44444444  0.11111111  0.10332942
   0.77777778  0.11111111  0.10332942
   0.11111111  0.44444444  0.10332942
   0.44444444  0.44444444  0.10332942
   0.77777778  0.44444444  0.10332942
   0.11111111  0.77777778  0.10332942
   0.44444444  0.77777778  0.10332942
   0.77777778  0.77777778  0.10332942
   0.89044316  0.22510833  0.20685965
   0.22021909  0.22635370  0.20945477
   0.55122131  0.22502314  0.20685344
   0.88990964  0.55460660  0.20688010
   0.22253506  0.55452627  0.20688450
   0.55416293  0.55859085  0.20400592
   0.88829118  0.89042592  0.20435126
   0.22168731  0.89475624  0.20676906
   0.55057966  0.89475247  0.20676003
   0.99565080  0.00066193  0.30856396
   0.34001567  0.98719080  0.31612028
   0.67068172  0.00078714  0.30860147
   0.97594411  0.34663060  0.31751987
   0.34402324  0.34647718  0.31769388
   0.66233380  0.34188745  0.30773059
   0.99707397  0.67279241  0.30830154
   0.33304779  0.67110363  0.30842664
   0.66263930  0.67111658  0.30836152
   0.21881613  0.22872352  0.36432634
