  39  39   0   0
  0.3566249E+02  0.8358002E-09  0.8358002E-09  0.1991000E-08  0.5000000E-15
   1.0000000000000000E-004
  CAR 
 unknown system                          
      6.93097913    -13.63190467  301      0.61310733      1.00000000
    -13.632  0.0000E+00  0.0000E+00
    -13.563  0.0000E+00  0.0000E+00
    -13.495 -0.3257E-30 -0.2233E-31
    -13.426 -0.2572E-25 -0.1763E-26
    -13.358 -0.7878E-21 -0.5400E-22
    -13.289 -0.9345E-17 -0.6406E-18
    -13.221 -0.4122E-13 -0.2826E-14
    -13.152 -0.7294E-10 -0.5002E-11
    -13.084 -0.4886E-07 -0.3354E-08
    -13.015 -0.1239E-04 -0.8524E-06
    -12.946 -0.1167E-02 -0.8081E-04
    -12.878 -0.3909E-01 -0.2760E-02
    -12.809 -0.4096E+00 -0.3083E-01
    -12.741 -0.4866E+00 -0.6418E-01
    -12.672  0.6395E+01  0.3742E+00
    -12.604  0.1578E+02  0.1456E+01
    -12.535  0.8558E+01  0.2043E+01
    -12.467 -0.1950E-01  0.2041E+01
    -12.398 -0.5355E+00  0.2005E+01
    -12.330 -0.6525E-01  0.2000E+01
    -12.261 -0.2363E-02  0.2000E+01
    -12.193 -0.3005E-04  0.2000E+01
    -12.124 -0.1412E-06  0.2000E+01
    -12.055 -0.2506E-09  0.2000E+01
    -11.987 -0.1685E-12  0.2000E+01
    -11.918  0.0000E+00  0.2000E+01
    -11.850  0.0000E+00  0.2000E+01
    -11.781  0.0000E+00  0.2000E+01
    -11.713  0.0000E+00  0.2000E+01
    -11.644  0.0000E+00  0.2000E+01
    -11.576  0.0000E+00  0.2000E+01
    -11.507  0.0000E+00  0.2000E+01
    -11.439  0.0000E+00  0.2000E+01
    -11.370  0.0000E+00  0.2000E+01
    -11.301  0.0000E+00  0.2000E+01
    -11.233  0.0000E+00  0.2000E+01
    -11.164  0.0000E+00  0.2000E+01
    -11.096  0.0000E+00  0.2000E+01
    -11.027  0.0000E+00  0.2000E+01
    -10.959  0.0000E+00  0.2000E+01
    -10.890  0.0000E+00  0.2000E+01
    -10.822  0.0000E+00  0.2000E+01
    -10.753  0.0000E+00  0.2000E+01
    -10.685  0.0000E+00  0.2000E+01
    -10.616  0.0000E+00  0.2000E+01
    -10.547  0.0000E+00  0.2000E+01
    -10.479  0.0000E+00  0.2000E+01
    -10.410  0.0000E+00  0.2000E+01
    -10.342  0.0000E+00  0.2000E+01
    -10.273  0.0000E+00  0.2000E+01
    -10.205  0.0000E+00  0.2000E+01
    -10.136  0.0000E+00  0.2000E+01
    -10.068  0.0000E+00  0.2000E+01
     -9.999  0.0000E+00  0.2000E+01
     -9.931  0.0000E+00  0.2000E+01
     -9.862  0.0000E+00  0.2000E+01
     -9.793  0.0000E+00  0.2000E+01
     -9.725  0.0000E+00  0.2000E+01
     -9.656  0.0000E+00  0.2000E+01
     -9.588  0.0000E+00  0.2000E+01
     -9.519  0.0000E+00  0.2000E+01
     -9.451  0.0000E+00  0.2000E+01
     -9.382  0.0000E+00  0.2000E+01
     -9.314  0.0000E+00  0.2000E+01
     -9.245  0.0000E+00  0.2000E+01
     -9.177  0.0000E+00  0.2000E+01
     -9.108  0.0000E+00  0.2000E+01
     -9.040  0.0000E+00  0.2000E+01
     -8.971  0.0000E+00  0.2000E+01
     -8.902  0.0000E+00  0.2000E+01
     -8.834  0.0000E+00  0.2000E+01
     -8.765  0.0000E+00  0.2000E+01
     -8.697  0.0000E+00  0.2000E+01
     -8.628  0.0000E+00  0.2000E+01
     -8.560  0.0000E+00  0.2000E+01
     -8.491  0.0000E+00  0.2000E+01
     -8.423  0.0000E+00  0.2000E+01
     -8.354  0.0000E+00  0.2000E+01
     -8.286  0.0000E+00  0.2000E+01
     -8.217  0.0000E+00  0.2000E+01
     -8.148  0.0000E+00  0.2000E+01
     -8.080  0.0000E+00  0.2000E+01
     -8.011  0.0000E+00  0.2000E+01
     -7.943  0.0000E+00  0.2000E+01
     -7.874  0.0000E+00  0.2000E+01
     -7.806  0.0000E+00  0.2000E+01
     -7.737  0.0000E+00  0.2000E+01
     -7.669  0.0000E+00  0.2000E+01
     -7.600  0.0000E+00  0.2000E+01
     -7.532  0.0000E+00  0.2000E+01
     -7.463  0.0000E+00  0.2000E+01
     -7.394  0.0000E+00  0.2000E+01
     -7.326  0.0000E+00  0.2000E+01
     -7.257  0.0000E+00  0.2000E+01
     -7.189  0.0000E+00  0.2000E+01
     -7.120  0.0000E+00  0.2000E+01
     -7.052  0.0000E+00  0.2000E+01
     -6.983  0.0000E+00  0.2000E+01
     -6.915  0.0000E+00  0.2000E+01
     -6.846  0.0000E+00  0.2000E+01
     -6.778  0.0000E+00  0.2000E+01
     -6.709  0.0000E+00  0.2000E+01
     -6.641  0.0000E+00  0.2000E+01
     -6.572  0.0000E+00  0.2000E+01
     -6.503  0.0000E+00  0.2000E+01
     -6.435  0.0000E+00  0.2000E+01
     -6.366  0.0000E+00  0.2000E+01
     -6.298  0.0000E+00  0.2000E+01
     -6.229 -0.2805E-28  0.2000E+01
     -6.161 -0.1475E-23  0.2000E+01
     -6.092 -0.3016E-19  0.2000E+01
     -6.024 -0.2397E-15  0.2000E+01
     -5.955 -0.7160E-12  0.2000E+01
     -5.887 -0.8480E-09  0.2000E+01
     -5.818 -0.3856E-06  0.2000E+01
     -5.749 -0.6666E-04  0.2000E+01
     -5.681 -0.4282E-02  0.2000E+01
     -5.612 -0.9654E-01  0.1993E+01
     -5.544 -0.6210E+00  0.1951E+01
     -5.475  0.5136E+00  0.1986E+01
     -5.407  0.9521E+01  0.2638E+01
     -5.338  0.1543E+02  0.3696E+01
     -5.270  0.1399E+02  0.4655E+01
     -5.201  0.1472E+02  0.5664E+01
     -5.133  0.5795E+01  0.6061E+01
     -5.064 -0.4484E+00  0.6030E+01
     -4.995 -0.3971E+00  0.6003E+01
     -4.927 -0.4042E-01  0.6000E+01
     -4.858 -0.1316E-02  0.6000E+01
     -4.790 -0.6944E-03  0.6000E+01
     -4.721 -0.2589E-01  0.5998E+01
     -4.653 -0.3218E+00  0.5976E+01
     -4.584 -0.7459E+00  0.5925E+01
     -4.516  0.4164E+01  0.6210E+01
     -4.447  0.1502E+02  0.7240E+01
     -4.379  0.1923E+02  0.8558E+01
     -4.310  0.2255E+02  0.1010E+02
     -4.242  0.2041E+02  0.1150E+02
     -4.173  0.7095E+01  0.1199E+02
     -4.104  0.3249E+01  0.1221E+02
     -4.036  0.1234E+02  0.1306E+02
     -3.967  0.2587E+02  0.1483E+02
     -3.899  0.6467E+02  0.1926E+02
     -3.830  0.8117E+02  0.2483E+02
     -3.762  0.6632E+02  0.2937E+02
     -3.693  0.7004E+02  0.3417E+02
     -3.625  0.5567E+02  0.3799E+02
     -3.556  0.3656E+02  0.4050E+02
     -3.488  0.5279E+02  0.4411E+02
     -3.419  0.6662E+02  0.4868E+02
     -3.350  0.6460E+02  0.5311E+02
     -3.282  0.8121E+02  0.5868E+02
     -3.213  0.7724E+02  0.6397E+02
     -3.145  0.6072E+02  0.6813E+02
     -3.076  0.6171E+02  0.7236E+02
     -3.008  0.8339E+02  0.7808E+02
     -2.939  0.9725E+02  0.8474E+02
     -2.871  0.7108E+02  0.8961E+02
     -2.802  0.4180E+02  0.9248E+02
     -2.734  0.3670E+02  0.9500E+02
     -2.665  0.5481E+02  0.9875E+02
     -2.596  0.6838E+02  0.1034E+03
     -2.528  0.7926E+02  0.1089E+03
     -2.459  0.7703E+02  0.1142E+03
     -2.391  0.5962E+02  0.1182E+03
     -2.322  0.5054E+02  0.1217E+03
     -2.254  0.5502E+02  0.1255E+03
     -2.185  0.7790E+02  0.1308E+03
     -2.117  0.9002E+02  0.1370E+03
     -2.048  0.7657E+02  0.1422E+03
     -1.980  0.5847E+02  0.1462E+03
     -1.911  0.5020E+02  0.1497E+03
     -1.843  0.6294E+02  0.1540E+03
     -1.774  0.8982E+02  0.1601E+03
     -1.705  0.1131E+03  0.1679E+03
     -1.637  0.1209E+03  0.1762E+03
     -1.568  0.9284E+02  0.1825E+03
     -1.500  0.7768E+02  0.1879E+03
     -1.431  0.8708E+02  0.1938E+03
     -1.363  0.8264E+02  0.1995E+03
     -1.294  0.6825E+02  0.2042E+03
     -1.226  0.5400E+02  0.2079E+03
     -1.157  0.7007E+02  0.2127E+03
     -1.089  0.7450E+02  0.2178E+03
     -1.020  0.5100E+02  0.2213E+03
     -0.951  0.7089E+02  0.2261E+03
     -0.883  0.1195E+03  0.2343E+03
     -0.814  0.1344E+03  0.2436E+03
     -0.746  0.1149E+03  0.2514E+03
     -0.677  0.9018E+02  0.2576E+03
     -0.609  0.6298E+02  0.2619E+03
     -0.540  0.6256E+02  0.2662E+03
     -0.472  0.8775E+02  0.2722E+03
     -0.403  0.8276E+02  0.2779E+03
     -0.335  0.6270E+02  0.2822E+03
     -0.266  0.7809E+02  0.2875E+03
     -0.197  0.1016E+03  0.2945E+03
     -0.129  0.8283E+02  0.3002E+03
     -0.060  0.6215E+02  0.3045E+03
      0.008  0.6521E+02  0.3089E+03
      0.077  0.8202E+02  0.3145E+03
      0.145  0.1041E+03  0.3217E+03
      0.214  0.9534E+02  0.3282E+03
      0.282  0.7939E+02  0.3337E+03
      0.351  0.1052E+03  0.3409E+03
      0.419  0.1244E+03  0.3494E+03
      0.488  0.9849E+02  0.3561E+03
      0.556  0.8570E+02  0.3620E+03
      0.625  0.1066E+03  0.3693E+03
      0.694  0.9240E+02  0.3757E+03
      0.762  0.4711E+02  0.3789E+03
      0.831  0.1921E+02  0.3802E+03
      0.899  0.1957E+02  0.3815E+03
      0.968  0.2493E+02  0.3832E+03
      1.036  0.1160E+02  0.3840E+03
      1.105 -0.3620E+00  0.3840E+03
      1.173 -0.6145E+00  0.3840E+03
      1.242  0.8794E+01  0.3846E+03
      1.310  0.1431E+02  0.3856E+03
      1.379  0.5511E+01  0.3859E+03
      1.448  0.1935E+02  0.3873E+03
      1.516  0.4326E+02  0.3902E+03
      1.585  0.2508E+02  0.3919E+03
      1.653  0.7997E+01  0.3925E+03
      1.722  0.1965E+02  0.3938E+03
      1.790  0.2294E+02  0.3954E+03
      1.859  0.8354E+01  0.3960E+03
      1.927  0.2316E+00  0.3960E+03
      1.996  0.1217E+02  0.3968E+03
      2.064  0.2604E+02  0.3986E+03
      2.133  0.2591E+02  0.4004E+03
      2.202  0.1837E+02  0.4017E+03
      2.270  0.5611E+01  0.4020E+03
      2.339  0.8053E+01  0.4026E+03
      2.407  0.1525E+02  0.4036E+03
      2.476  0.6193E+01  0.4041E+03
      2.544 -0.4926E+00  0.4040E+03
      2.613 -0.4012E+00  0.4040E+03
      2.681 -0.5233E-01  0.4040E+03
      2.750 -0.2195E+00  0.4040E+03
      2.818 -0.7576E+00  0.4039E+03
      2.887  0.2945E+01  0.4041E+03
      2.955  0.1385E+02  0.4051E+03
      3.024  0.1200E+02  0.4059E+03
      3.093  0.1072E+01  0.4060E+03
      3.161  0.5393E+01  0.4063E+03
      3.230  0.2015E+02  0.4077E+03
      3.298  0.2428E+02  0.4094E+03
      3.367  0.1986E+02  0.4108E+03
      3.435  0.1741E+02  0.4119E+03
      3.504  0.1777E+02  0.4132E+03
      3.572  0.2313E+02  0.4148E+03
      3.641  0.1585E+02  0.4158E+03
      3.709  0.5295E+01  0.4162E+03
      3.778  0.1261E+02  0.4171E+03
      3.847  0.1253E+02  0.4179E+03
      3.915  0.1873E+01  0.4181E+03
      3.984 -0.1469E+01  0.4180E+03
      4.052  0.1240E+01  0.4180E+03
      4.121  0.1161E+02  0.4188E+03
      4.189  0.1464E+02  0.4198E+03
      4.258  0.1193E+02  0.4207E+03
      4.326  0.1410E+02  0.4216E+03
      4.395  0.6053E+01  0.4220E+03
      4.463 -0.1005E+01  0.4220E+03
      4.532  0.1302E+01  0.4221E+03
      4.601  0.1222E+02  0.4229E+03
      4.669  0.1699E+02  0.4241E+03
      4.738  0.1537E+02  0.4251E+03
      4.806  0.1544E+02  0.4262E+03
      4.875  0.1675E+02  0.4273E+03
      4.943  0.9826E+01  0.4280E+03
      5.012 -0.1126E+00  0.4280E+03
      5.080  0.1898E+01  0.4281E+03
      5.149  0.1348E+02  0.4290E+03
      5.217  0.1984E+02  0.4304E+03
      5.286  0.1731E+02  0.4316E+03
      5.354  0.6224E+01  0.4320E+03
      5.423  0.4692E+00  0.4320E+03
      5.492  0.9220E+01  0.4327E+03
      5.560  0.1896E+02  0.4340E+03
      5.629  0.1312E+02  0.4349E+03
      5.697  0.4462E+01  0.4352E+03
      5.766  0.8817E+01  0.4358E+03
      5.834  0.1655E+02  0.4369E+03
      5.903  0.2322E+02  0.4385E+03
      5.971  0.1858E+02  0.4398E+03
      6.040  0.4428E+01  0.4401E+03
      6.108 -0.8882E+00  0.4400E+03
      6.177 -0.3545E+00  0.4400E+03
      6.246 -0.2889E-01  0.4400E+03
      6.314 -0.7861E-03  0.4400E+03
      6.383 -0.7820E-05  0.4400E+03
      6.451 -0.2935E-07  0.4400E+03
      6.520 -0.4214E-10  0.4400E+03
      6.588 -0.2592E-13  0.4400E+03
      6.657  0.0000E+00  0.4400E+03
      6.725  0.0000E+00  0.4400E+03
      6.794  0.0000E+00  0.4400E+03
      6.862  0.0000E+00  0.4400E+03
      6.931  0.0000E+00  0.4400E+03
