   39   39    1    1
  0.3566249E+02  0.8358002E-09  0.8358002E-09  0.1991000E-08  0.5000000E-15
   1.0000000000000000E-004
  CAR 
 unknown system                          
    368      2    220

  0.2500000E+00  0.2500000E+00  0.1262379E-14  0.5000000E+00
      1        -12.631903   1.000000
      2         -5.396679   1.000000
      3         -5.230958   1.000000
      4         -4.471150   1.000000
      5         -4.358740   1.000000
      6         -4.265304   1.000000
      7         -4.054779   1.000000
      8         -3.942914   1.000000
      9         -3.910094   1.000000
     10         -3.901698   1.000000
     11         -3.880156   1.000000
     12         -3.867534   1.000000
     13         -3.851019   1.000000
     14         -3.789052   1.000000
     15         -3.758914   1.000000
     16         -3.724852   1.000000
     17         -3.706801   1.000000
     18         -3.702836   1.000000
     19         -3.645086   1.000000
     20         -3.609106   1.000000
     21         -3.543973   1.000000
     22         -3.483596   1.000000
     23         -3.471122   1.000000
     24         -3.454550   1.000000
     25         -3.420745   1.000000
     26         -3.380832   1.000000
     27         -3.336292   1.000000
     28         -3.318167   1.000000
     29         -3.304335   1.000000
     30         -3.289197   1.000000
     31         -3.263993   1.000000
     32         -3.225520   1.000000
     33         -3.201632   1.000000
     34         -3.170825   1.000000
     35         -3.139521   1.000000
     36         -3.088176   1.000000
     37         -3.067073   1.000000
     38         -3.032924   1.000000
     39         -3.014300   1.000000
     40         -2.992534   1.000000
     41         -2.979335   1.000000
     42         -2.960884   1.000000
     43         -2.946921   1.000000
     44         -2.918796   1.000000
     45         -2.877481   1.000000
     46         -2.835364   1.000000
     47         -2.794892   1.000000
     48         -2.713230   1.000000
     49         -2.686948   1.000000
     50         -2.675725   1.000000
     51         -2.636189   1.000000
     52         -2.601804   1.000000
     53         -2.574373   1.000000
     54         -2.536256   1.000000
     55         -2.526414   1.000000
     56         -2.509758   1.000000
     57         -2.479363   1.000000
     58         -2.447247   1.000000
     59         -2.407119   1.000000
     60         -2.388054   1.000000
     61         -2.355236   1.000000
     62         -2.288659   1.000000
     63         -2.263800   1.000000
     64         -2.222170   1.000000
     65         -2.193290   1.000000
     66         -2.175530   1.000000
     67         -2.167862   1.000000
     68         -2.146973   1.000000
     69         -2.112831   1.000000
     70         -2.094104   1.000000
     71         -2.057883   1.000000
     72         -2.044303   1.000000
     73         -2.012753   1.000000
     74         -1.954228   1.000000
     75         -1.911875   1.000000
     76         -1.898966   1.000000
     77         -1.838717   1.000000
     78         -1.831280   1.000000
     79         -1.821144   1.000000
     80         -1.777332   1.000000
     81         -1.762053   1.000000
     82         -1.749193   1.000000
     83         -1.724237   1.000000
     84         -1.701825   1.000000
     85         -1.695945   1.000000
     86         -1.675032   1.000000
     87         -1.661029   1.000000
     88         -1.651534   1.000000
     89         -1.635828   1.000000
     90         -1.626553   1.000000
     91         -1.607264   1.000000
     92         -1.556767   1.000000
     93         -1.536015   1.000000
     94         -1.498515   1.000000
     95         -1.479951   1.000000
     96         -1.466105   1.000000
     97         -1.454023   1.000000
     98         -1.408153   1.000000
     99         -1.402532   1.000000
    100         -1.370715   1.000000
    101         -1.340173   1.000000
    102         -1.317298   1.000000
    103         -1.300009   1.000000
    104         -1.235043   1.000000
    105         -1.187261   1.000000
    106         -1.181111   1.000000
    107         -1.134544   1.000000
    108         -1.126332   1.000000
    109         -1.108691   1.000000
    110         -1.083111   1.000000
    111         -1.026448   1.000000
    112         -0.977520   1.000000
    113         -0.961961   1.000000
    114         -0.939061   1.000000
    115         -0.922801   1.000000
    116         -0.915428   1.000000
    117         -0.888548   1.000000
    118         -0.871268   1.000000
    119         -0.862068   1.000000
    120         -0.855019   1.000000
    121         -0.830493   1.000000
    122         -0.818471   1.000000
    123         -0.805822   1.000000
    124         -0.786203   1.000000
    125         -0.772605   1.000000
    126         -0.745278   1.000000
    127         -0.732758   1.000000
    128         -0.718557   1.000000
    129         -0.699339   1.000000
    130         -0.657799   1.000000
    131         -0.645921   1.000000
    132         -0.584514   1.000000
    133         -0.545122   1.000000
    134         -0.514058   1.000000
    135         -0.502470   1.000000
    136         -0.490797   1.000000
    137         -0.454688   1.000000
    138         -0.447130   1.000000
    139         -0.425583   1.000000
    140         -0.404915   1.000000
    141         -0.358218   1.000000
    142         -0.315101   1.000000
    143         -0.276007   1.000000
    144         -0.262068   1.000000
    145         -0.246847   1.000000
    146         -0.230350   1.000000
    147         -0.214720   1.000000
    148         -0.206879   1.000000
    149         -0.181559   1.000000
    150         -0.145636   1.000000
    151         -0.122109   1.000000
    152         -0.076147   1.000000
    153         -0.042046   1.000000
    154         -0.016922   1.000000
    155          0.001910   1.000000
    156          0.041048   1.000000
    157          0.071521   1.000000
    158          0.089640   1.000000
    159          0.100287   1.000000
    160          0.112304   1.000000
    161          0.133383   1.000000
    162          0.161949   1.000000
    163          0.181881   1.000000
    164          0.188861   1.000000
    165          0.212950   1.000000
    166          0.242552   1.000001
    167          0.294795   1.000032
    168          0.302799   1.000052
    169          0.311955   1.000088
    170          0.349423   1.000615
    171          0.360619   1.001035
    172          0.369735   1.001549
    173          0.381083   1.002489
    174          0.393117   1.003977
    175          0.399585   1.005042
    176          0.428086   1.012577
    177          0.449995   1.021633
    178          0.471952   1.031342
    179          0.492779   1.035385
    180          0.519289   1.017465
    181          0.560510   0.884027
    182          0.587534   0.708773
    183          0.597374   0.631340
    184          0.601572   0.596906
    185          0.622794   0.418452
    186          0.628996   0.367406
    187          0.649269   0.215028
    188          0.688084   0.023944
    189          0.706823  -0.017316
    190          0.770523  -0.024262
    191          0.887203  -0.000369
    192          0.945222  -0.000014
    193          1.261036  -0.000000
    194          1.460582  -0.000000
    195          1.484429  -0.000000
    196          1.512575  -0.000000
    197          1.673815  -0.000000
    198          1.782106  -0.000000
    199          2.017853  -0.000000
    200          2.105964  -0.000000
    201          2.141989  -0.000000
    202          2.360292  -0.000000
    203          2.944679   0.000000
    204          3.211227   0.000000
    205          3.285767   0.000000
    206          3.393177   0.000000
    207          3.472407   0.000000
    208          3.569435   0.000000
    209          3.782638   0.000000
    210          4.127161   0.000000
    211          4.265340   0.000000
    212          4.604848   0.000000
    213          4.751451   0.000000
    214          4.850096   0.000000
    215          5.153914   0.000000
    216          5.241068   0.000000
    217          5.485943   0.000000
    218          5.739494   0.000000
    219          5.864999   0.000000
    220          5.913000   0.000000

 -0.2500000E+00  0.2500000E+00  0.1262379E-14  0.5000000E+00
      1        -12.631905   1.000000
      2         -5.377900   1.000000
      3         -5.256510   1.000000
      4         -4.459424   1.000000
      5         -4.351341   1.000000
      6         -4.273707   1.000000
      7         -4.055027   1.000000
      8         -3.953578   1.000000
      9         -3.918082   1.000000
     10         -3.896167   1.000000
     11         -3.877532   1.000000
     12         -3.868690   1.000000
     13         -3.844489   1.000000
     14         -3.793650   1.000000
     15         -3.761730   1.000000
     16         -3.723904   1.000000
     17         -3.704856   1.000000
     18         -3.696316   1.000000
     19         -3.659370   1.000000
     20         -3.596786   1.000000
     21         -3.514463   1.000000
     22         -3.507409   1.000000
     23         -3.473306   1.000000
     24         -3.456970   1.000000
     25         -3.440110   1.000000
     26         -3.375997   1.000000
     27         -3.334841   1.000000
     28         -3.314970   1.000000
     29         -3.307044   1.000000
     30         -3.273185   1.000000
     31         -3.264817   1.000000
     32         -3.239386   1.000000
     33         -3.180907   1.000000
     34         -3.166814   1.000000
     35         -3.125906   1.000000
     36         -3.090805   1.000000
     37         -3.079026   1.000000
     38         -3.033824   1.000000
     39         -3.005629   1.000000
     40         -2.995869   1.000000
     41         -2.973634   1.000000
     42         -2.960055   1.000000
     43         -2.952101   1.000000
     44         -2.918699   1.000000
     45         -2.886892   1.000000
     46         -2.844046   1.000000
     47         -2.794354   1.000000
     48         -2.718609   1.000000
     49         -2.687793   1.000000
     50         -2.677122   1.000000
     51         -2.621886   1.000000
     52         -2.606711   1.000000
     53         -2.566521   1.000000
     54         -2.545403   1.000000
     55         -2.528948   1.000000
     56         -2.510871   1.000000
     57         -2.478789   1.000000
     58         -2.459098   1.000000
     59         -2.404111   1.000000
     60         -2.365476   1.000000
     61         -2.333561   1.000000
     62         -2.296474   1.000000
     63         -2.262448   1.000000
     64         -2.228747   1.000000
     65         -2.195072   1.000000
     66         -2.186328   1.000000
     67         -2.165028   1.000000
     68         -2.145796   1.000000
     69         -2.127564   1.000000
     70         -2.093402   1.000000
     71         -2.058758   1.000000
     72         -2.033472   1.000000
     73         -2.019189   1.000000
     74         -1.958179   1.000000
     75         -1.935063   1.000000
     76         -1.895648   1.000000
     77         -1.835106   1.000000
     78         -1.827490   1.000000
     79         -1.804310   1.000000
     80         -1.788550   1.000000
     81         -1.776118   1.000000
     82         -1.744282   1.000000
     83         -1.735035   1.000000
     84         -1.710249   1.000000
     85         -1.695964   1.000000
     86         -1.680698   1.000000
     87         -1.654718   1.000000
     88         -1.643990   1.000000
     89         -1.633922   1.000000
     90         -1.625207   1.000000
     91         -1.599325   1.000000
     92         -1.539553   1.000000
     93         -1.530435   1.000000
     94         -1.507896   1.000000
     95         -1.478018   1.000000
     96         -1.468784   1.000000
     97         -1.450979   1.000000
     98         -1.405298   1.000000
     99         -1.403675   1.000000
    100         -1.358728   1.000000
    101         -1.341786   1.000000
    102         -1.309690   1.000000
    103         -1.298533   1.000000
    104         -1.235445   1.000000
    105         -1.186143   1.000000
    106         -1.180846   1.000000
    107         -1.155646   1.000000
    108         -1.133985   1.000000
    109         -1.125139   1.000000
    110         -1.088902   1.000000
    111         -1.010593   1.000000
    112         -0.986418   1.000000
    113         -0.950107   1.000000
    114         -0.933354   1.000000
    115         -0.926839   1.000000
    116         -0.906353   1.000000
    117         -0.895561   1.000000
    118         -0.875246   1.000000
    119         -0.860903   1.000000
    120         -0.850900   1.000000
    121         -0.841737   1.000000
    122         -0.830950   1.000000
    123         -0.811444   1.000000
    124         -0.783513   1.000000
    125         -0.769770   1.000000
    126         -0.741977   1.000000
    127         -0.721619   1.000000
    128         -0.703964   1.000000
    129         -0.680976   1.000000
    130         -0.659537   1.000000
    131         -0.632170   1.000000
    132         -0.577820   1.000000
    133         -0.545162   1.000000
    134         -0.534694   1.000000
    135         -0.498774   1.000000
    136         -0.490743   1.000000
    137         -0.469631   1.000000
    138         -0.452179   1.000000
    139         -0.415685   1.000000
    140         -0.376351   1.000000
    141         -0.359650   1.000000
    142         -0.322925   1.000000
    143         -0.282969   1.000000
    144         -0.264735   1.000000
    145         -0.255951   1.000000
    146         -0.229514   1.000000
    147         -0.213916   1.000000
    148         -0.197614   1.000000
    149         -0.182222   1.000000
    150         -0.137895   1.000000
    151         -0.129411   1.000000
    152         -0.076134   1.000000
    153         -0.051386   1.000000
    154         -0.029677   1.000000
    155          0.000586   1.000000
    156          0.040824   1.000000
    157          0.065705   1.000000
    158          0.087277   1.000000
    159          0.102299   1.000000
    160          0.126804   1.000000
    161          0.134986   1.000000
    162          0.158514   1.000000
    163          0.174175   1.000000
    164          0.185583   1.000000
    165          0.209137   1.000000
    166          0.257551   1.000003
    167          0.282612   1.000015
    168          0.302580   1.000051
    169          0.314983   1.000104
    170          0.342714   1.000444
    171          0.359737   1.000995
    172          0.369509   1.001534
    173          0.377993   1.002194
    174          0.399580   1.005041
    175          0.411065   1.007480
    176          0.429694   1.013154
    177          0.447614   1.020550
    178          0.468149   1.029829
    179          0.508296   1.029427
    180          0.525755   1.006540
    181          0.534956   0.985166
    182          0.584651   0.730348
    183          0.596103   0.641623
    184          0.610392   0.522970
    185          0.620879   0.434453
    186          0.624679   0.402794
    187          0.644969   0.244941
    188          0.683516   0.038709
    189          0.715277  -0.027234
    190          0.762461  -0.027939
    191          0.886439  -0.000384
    192          0.960613  -0.000005
    193          1.273335  -0.000000
    194          1.470299  -0.000000
    195          1.480065  -0.000000
    196          1.521980  -0.000000
    197          1.710425  -0.000000
    198          1.747206  -0.000000
    199          2.003194  -0.000000
    200          2.042261  -0.000000
    201          2.174811  -0.000000
    202          2.371128  -0.000000
    203          2.955950   0.000000
    204          3.187896   0.000000
    205          3.266287   0.000000
    206          3.369641   0.000000
    207          3.530065   0.000000
    208          3.587995   0.000000
    209          3.767758   0.000000
    210          4.128977   0.000000
    211          4.304498   0.000000
    212          4.601551   0.000000
    213          4.709405   0.000000
    214          4.867582   0.000000
    215          5.133444   0.000000
    216          5.262634   0.000000
    217          5.542684   0.000000
    218          5.575529   0.000000
    219          5.815800   0.000000
    220          5.930979   0.000000
