 vasp.6.4.3 19Mar24 (build Oct  2 2024 09:01:45) complex                         
 executed on             LinuxGNU date 2025.02.24  13:04:26
 running   48 mpi-ranks, with    1 threads/rank, on    1 nodes
 distrk:  each k-point on   48 cores,    1 groups
 distr:  one band on NCORE=  24 cores,    2 groups


--------------------------------------------------------------------------------------------------------


 INCAR:
   ENCUT = 400.000000
   SIGMA = 0.100000
   EDIFF = 1.00e-04
   EDIFFG = -3.00e-02
   ALGO = Fast
   GGA = PE
   PREC = Accurate
   IBRION = -1
   ICHARG = 2
   IDIPOL = 3
   ISMEAR = 1
   ISYM = 0
   NPAR = 2
   LCHARG = .FALSE.
   LDIPOL = .TRUE.
   LWAVE = .FALSE.
   LREAL = Auto

 POTCAR:    PAW_PBE Pd 04Jan2005                  
 POTCAR:    PAW_PBE H 15Jun2001                   
 POTCAR:    PAW_PBE S 06Sep2000                   
 POTCAR:    PAW_PBE Pd 04Jan2005                  
   SHA256 =  dd6f6f02930356371984e2b707ff5e456046761dc76b07c1eba30abd15eb3c39 Pd/POTCAR             
   COPYR  = (c) Copyright 04Jan2005 Georg Kresse                                                    
   COPYR  = This file is part of the software VASP. Any use, copying, and all other rights are regul
   COPYR  = If you do not have a valid VASP license, you may not use, copy or distribute this file. 
   VRHFIN =Pd : s1 d9                                                                               
   LEXCH  = PE                                                                                      
   EATOM  =   809.7530 eV,   59.5152 Ry                                                             
                                                                                                    
   TITEL  = PAW_PBE Pd 04Jan2005                                                                    
   LULTRA =        F    use ultrasoft PP ?                                                          
   IUNSCR =        1    unscreen: 0-lin 1-nonlin 2-no                                               
   RPACOR =    2.000    partial core radius                                                         
   POMASS =  106.420; ZVAL   =   10.000    mass and valenz                                          
   RCORE  =    2.600    outmost cutoff radius                                                       
   RWIGS  =    2.710; RWIGS  =    1.434    wigner-seitz radius (au A)                               
   ENMAX  =  250.925; ENMIN  =  188.194 eV                                                          
   ICORE  =        3    local potential                                                             
   LCOR   =        T    correct aug charges                                                         
   LPAW   =        T    paw PP                                                                      
   EAUG   =  416.230                                                                                
   DEXC   =    0.000                                                                                
   RMAX   =    2.653    core radius for proj-oper                                                   
   RAUG   =    1.300    factor for augmentation sphere                                              
   RDEP   =    2.734    radius for radial grids                                                     
   RDEPT  =    2.103    core radius for aug-charge                                                  
                                                                                                    
   Atomic configuration                                                                             
   12 entries                                                                                       
     n  l   j            E        occ.                                                              
     1  0  0.50    -24164.6631   2.0000                                                             
     2  0  0.50     -3530.9218   2.0000                                                             
     2  1  1.50     -3165.6822   6.0000                                                             
     3  0  0.50      -639.4577   2.0000                                                             
     3  1  1.50      -519.4532   6.0000                                                             
     3  2  2.50      -328.9757  10.0000                                                             
     4  0  0.50       -88.7014   2.0000                                                             
     4  1  1.50       -54.4540   6.0000                                                             
     4  2  2.50        -6.6878   9.0000                                                             
     5  0  0.50        -4.3543   1.0000                                                             
     5  1  0.50        -1.3606   0.0000                                                             
     4  3  2.50        -1.3606   0.0000                                                             
   Description                                                                                      
     l       E           TYP  RCUT    TYP  RCUT                                                     
     2     -6.6878251     23  2.400                                                                 
     2     -8.0484077     23  2.400                                                                 
     0     -4.3542939     23  2.400                                                                 
     0      4.3406793     23  2.400                                                                 
     1     -4.0817478     23  2.600                                                                 
     1     15.8380318     23  2.600                                                                 
     3     -4.0817478     23  2.400                                                                 
  local pseudopotential read in
  partial core-charges read in
  partial kinetic energy density read in
  atomic valenz-charges read in
  non local Contribution for L=           2  read in
    real space projection operators read in
  non local Contribution for L=           2  read in
    real space projection operators read in
  non local Contribution for L=           0  read in
    real space projection operators read in
  non local Contribution for L=           0  read in
    real space projection operators read in
  non local Contribution for L=           1  read in
    real space projection operators read in
  non local Contribution for L=           1  read in
    real space projection operators read in
    PAW grid and wavefunctions read in

   number of l-projection  operators is LMAX  =           6
   number of lm-projection operators is LMMAX =          18

 POTCAR:    PAW_PBE H 15Jun2001                   
   SHA256 =  030f79b5d3ab3cf0e668861823c8fb652ff669f3e15e46930bd03bfd63a607b6 H/POTCAR              
   COPYR  = (c) Copyright 15Jun2001 Georg Kresse                                                    
   COPYR  = This file is part of the software VASP. Any use, copying, and all other rights are regul
   COPYR  = If you do not have a valid VASP license, you may not use, copy or distribute this file. 
   VRHFIN =H: ultrasoft test                                                                        
   LEXCH  = PE                                                                                      
   EATOM  =    12.4884 eV,    0.9179 Ry                                                             
                                                                                                    
   TITEL  = PAW_PBE H 15Jun2001                                                                     
   LULTRA =        F    use ultrasoft PP ?                                                          
   IUNSCR =        0    unscreen: 0-lin 1-nonlin 2-no                                               
   RPACOR =    0.000    partial core radius                                                         
   POMASS =    1.000; ZVAL   =    1.000    mass and valenz                                          
   RCORE  =    1.100    outmost cutoff radius                                                       
   RWIGS  =    0.700; RWIGS  =    0.370    wigner-seitz radius (au A)                               
   ENMAX  =  250.000; ENMIN  =  200.000 eV                                                          
   RCLOC  =    0.701    cutoff for local pot                                                        
   LCOR   =        T    correct aug charges                                                         
   LPAW   =        T    paw PP                                                                      
   EAUG   =  400.000                                                                                
   RMAX   =    1.123    core radius for proj-oper                                                   
   RAUG   =    1.200    factor for augmentation sphere                                              
   RDEP   =    1.112    radius for radial grids                                                     
   RDEPT  =    0.926    core radius for aug-charge                                                  
                                                                                                    
   Atomic configuration                                                                             
    2 entries                                                                                       
     n  l   j            E        occ.                                                              
     1  0  0.50        -6.4927   1.0000                                                             
     2  1  0.50        -3.4015   0.0000                                                             
   Description                                                                                      
     l       E           TYP  RCUT    TYP  RCUT                                                     
     0     -6.4927494     23  1.100                                                                 
     0      6.8029130     23  1.100                                                                 
     1     -4.0817478     23  1.100                                                                 
  local pseudopotential read in
  atomic valenz-charges read in
  non local Contribution for L=           0  read in
    real space projection operators read in
  non local Contribution for L=           0  read in
    real space projection operators read in
  non local Contribution for L=           1  read in
    real space projection operators read in
    PAW grid and wavefunctions read in

   number of l-projection  operators is LMAX  =           3
   number of lm-projection operators is LMMAX =           5

 POTCAR:    PAW_PBE S 06Sep2000                   
   SHA256 =  0fc7481fb0695f01bdc6462160264c5c84044ae9ec85a907d398b887a2bc3132 S/POTCAR              
   COPYR  = (c) Copyright 06Sep2000 Georg Kresse                                                    
   COPYR  = This file is part of the software VASP. Any use, copying, and all other rights are regul
   COPYR  = If you do not have a valid VASP license, you may not use, copy or distribute this file. 
   VRHFIN =S : s2p4                                                                                 
   LEXCH  = PE                                                                                      
   EATOM  =   276.8230 eV,   20.3459 Ry                                                             
                                                                                                    
   TITEL  = PAW_PBE S 06Sep2000                                                                     
   LULTRA =        F    use ultrasoft PP ?                                                          
   IUNSCR =        1    unscreen: 0-lin 1-nonlin 2-no                                               
   RPACOR =    1.500    partial core radius                                                         
   POMASS =   32.066; ZVAL   =    6.000    mass and valenz                                          
   RCORE  =    1.900    outmost cutoff radius                                                       
   RWIGS  =    2.200; RWIGS  =    1.164    wigner-seitz radius (au A)                               
   ENMAX  =  258.689; ENMIN  =  194.016 eV                                                          
   ICORE  =        2    local potential                                                             
   LCOR   =        T    correct aug charges                                                         
   LPAW   =        T    paw PP                                                                      
   EAUG   =  335.092                                                                                
   DEXC   =    0.000                                                                                
   RMAX   =    1.942    core radius for proj-oper                                                   
   RAUG   =    1.300    factor for augmentation sphere                                              
   RDEP   =    1.954    radius for radial grids                                                     
   RDEPT  =    1.744    core radius for aug-charge                                                  
                                                                                                    
   Atomic configuration                                                                             
    6 entries                                                                                       
     n  l   j            E        occ.                                                              
     1  0  0.50     -2405.8406   2.0000                                                             
     2  0  0.50      -211.7007   2.0000                                                             
     2  1  1.50      -156.4958   6.0000                                                             
     3  0  0.50       -17.2562   2.0000                                                             
     3  1  0.50        -7.0085   4.0000                                                             
     3  2  1.50        -6.8029   0.0000                                                             
   Description                                                                                      
     l       E           TYP  RCUT    TYP  RCUT                                                     
     0    -17.2561641     23  1.900                                                                 
     0    -15.8743224     23  1.900                                                                 
     1     -7.0085400     23  1.900                                                                 
     1     -2.7779785     23  1.900                                                                 
     2     -6.8029130     23  1.900                                                                 
  local pseudopotential read in
  partial core-charges read in
  partial kinetic energy density read in
  atomic valenz-charges read in
  non local Contribution for L=           0  read in
    real space projection operators read in
  non local Contribution for L=           0  read in
    real space projection operators read in
  non local Contribution for L=           1  read in
    real space projection operators read in
  non local Contribution for L=           1  read in
    real space projection operators read in
    PAW grid and wavefunctions read in

   number of l-projection  operators is LMAX  =           4
   number of lm-projection operators is LMMAX =           8

 Optimization of the real space projectors (new method)

 maximal supplied QI-value         = 14.36
 optimisation between [QCUT,QGAM] = [ 10.20, 20.39] = [ 29.12,116.47] Ry 
 Optimized for a Real-space Cutoff    1.55 Angstroem

   l    n(q)    QCUT    max X(q) W(low)/X(q) W(high)/X(q)  e(spline) 
   2      9    10.197    59.108    0.12E-03    0.40E-04    0.11E-06
   2      9    10.197    58.101    0.12E-03    0.39E-04    0.12E-06
   0      9    10.197   102.235    0.41E-04    0.86E-05    0.83E-07
   0      9    10.197    58.388    0.37E-04    0.79E-05    0.78E-07
   1      9    10.197    22.191    0.25E-03    0.13E-03    0.84E-07
   1      9    10.197    15.590    0.21E-03    0.11E-03    0.74E-07
 Optimization of the real space projectors (new method)

 maximal supplied QI-value         = 34.20
 optimisation between [QCUT,QGAM] = [  9.92, 20.18] = [ 27.55,114.04] Ry 
 Optimized for a Real-space Cutoff    1.34 Angstroem

   l    n(q)    QCUT    max X(q) W(low)/X(q) W(high)/X(q)  e(spline) 
   0      8     9.919    19.460    0.16E-03    0.20E-03    0.36E-06
   0      8     9.919    12.209    0.16E-03    0.20E-03    0.35E-06
   1      8     9.919     4.655    0.19E-03    0.46E-03    0.40E-06
 Optimization of the real space projectors (new method)

 maximal supplied QI-value         = 19.84
 optimisation between [QCUT,QGAM] = [ 10.12, 20.44] = [ 28.68,116.96] Ry 
 Optimized for a Real-space Cutoff    1.42 Angstroem

   l    n(q)    QCUT    max X(q) W(low)/X(q) W(high)/X(q)  e(spline) 
   0      9    10.119   187.594    0.52E-04    0.93E-04    0.64E-07
   0      9    10.119   164.243    0.51E-04    0.92E-04    0.63E-07
   1      8    10.119    67.533    0.16E-03    0.17E-03    0.23E-06
   1      8    10.119    50.729    0.16E-03    0.16E-03    0.23E-06
  PAW_PBE Pd 04Jan2005                  :
 energy of atom  1       EATOM= -809.7530
 kinetic energy error for atom=    0.0091 (will be added to EATOM!!)
  PAW_PBE H 15Jun2001                   :
 energy of atom  2       EATOM=  -12.4884
 kinetic energy error for atom=    0.0098 (will be added to EATOM!!)
  PAW_PBE S 06Sep2000                   :
 energy of atom  3       EATOM= -276.8230
 kinetic energy error for atom=    0.0046 (will be added to EATOM!!)


 POSCAR: Pd H  S
  positions in cartesian coordinates
  No initial velocities read in


 exchange-correlation table for PE
   RHO(1)=    0.500       N(1)  =     2000
   RHO(2)=  100.500       N(2)  =     4000



--------------------------------------------------------------------------------------------------------


 ion  position               nearest neighbor table
   1  0.167  0.167  0.000-   3 2.79   7 2.79   4 2.79   2 2.79  10 2.79  11 2.79  13 2.79  14 2.79

   2  0.500  0.167  0.000-   8 2.79   3 2.79   5 2.79   1 2.79  11 2.79  12 2.79  14 2.79  15 2.79

   3  0.833  0.167  0.000-   1 2.79   9 2.79   6 2.79   2 2.79  10 2.79  12 2.79  13 2.79  15 2.79

   4  0.167  0.500  0.000-   6 2.79   5 2.79   1 2.79   7 2.79  13 2.79  16 2.79  14 2.79  17 2.79

   5  0.500  0.500  0.000-   2 2.79   4 2.79   6 2.79   8 2.79  14 2.79  15 2.79  17 2.79  18 2.79

   6  0.833  0.500  0.000-   4 2.79   3 2.79   5 2.79   9 2.79  13 2.79  16 2.79  15 2.79  18 2.79

   7  0.167  0.833  0.000-   1 2.79   9 2.79   8 2.79   4 2.79  10 2.79  11 2.79  16 2.79  17 2.79

   8  0.500  0.833  0.000-   2 2.79   5 2.79   7 2.79   9 2.79  11 2.79  12 2.79  17 2.79  18 2.79

   9  0.833  0.833  0.000-   3 2.79   7 2.79   6 2.79   8 2.79  10 2.79  12 2.79  16 2.79  18 2.79

  10  0.000  0.000  0.099-  19 2.75  21 2.76  27 2.77  16 2.79  11 2.79  12 2.79  13 2.79   9 2.79
                             1 2.79   3 2.79   7 2.79  25 2.83
  11  0.333  0.000  0.099-  19 2.76  20 2.77  12 2.79  17 2.79  10 2.79  14 2.79   2 2.79   8 2.79
                             7 2.79   1 2.79  25 2.80  26 2.82
  12  0.667  0.000  0.099-  20 2.74  21 2.77  27 2.77  11 2.79  10 2.79  15 2.79  18 2.79   8 2.79
                             2 2.79   9 2.79   3 2.79  26 2.82
  13  0.000  0.333  0.099-  24 2.76  21 2.77  19 2.78  16 2.79  14 2.79  15 2.79  10 2.79   6 2.79
                             4 2.79   3 2.79   1 2.79  22 2.79
  14  0.333  0.333  0.099-  22 2.78  23 2.79  15 2.79  17 2.79  11 2.79  13 2.79   5 2.79   4 2.79
                             2 2.79   1 2.79  19 2.79  20 2.80
  15  0.667  0.333  0.099-  24 2.77  20 2.77  21 2.78  18 2.79  14 2.79  13 2.79  12 2.79   5 2.79
                             6 2.79   2 2.79   3 2.79  23 2.80
  16  0.000  0.667  0.099-  27 2.76  25 2.77  24 2.78  13 2.79  10 2.79  17 2.79  18 2.79   6 2.79
                             4 2.79   9 2.79   7 2.79  22 2.81
  17  0.333  0.667  0.099-  25 2.74  26 2.76  14 2.79  18 2.79  16 2.79  11 2.79   5 2.79   4 2.79
                             8 2.79   7 2.79  22 2.80  23 2.81
  18  0.667  0.667  0.099-  27 2.77  26 2.77  15 2.79  17 2.79  16 2.79  12 2.79   5 2.79   6 2.79
                             8 2.79   9 2.79  24 2.79  23 2.82
  19  0.165  0.163  0.197-  32 2.68  10 2.75  11 2.76  21 2.77  13 2.78  28 2.78  14 2.79  22 2.80
                            25 2.81  29 2.82  20 2.83  31 2.85
  20  0.504  0.163  0.197-  12 2.74  21 2.76  32 2.77  11 2.77  15 2.77  30 2.77  23 2.80  14 2.80
                            26 2.81  29 2.82  19 2.83  33 2.90
  21  0.834  0.166  0.197-  20 2.76  10 2.76  19 2.77  13 2.77  12 2.77  24 2.77  30 2.78  31 2.78
                            15 2.78  27 2.79  28 2.81  33 2.88
  22  0.168  0.498  0.199-  25 2.75  32 2.75  34 2.75  23 2.76  14 2.78  13 2.79  24 2.79  17 2.80
                            19 2.80  16 2.81  35 2.83  31 2.84
  23  0.498  0.497  0.199-  26 2.75  36 2.76  22 2.76  14 2.79  20 2.80  15 2.80  17 2.81  24 2.81
                            32 2.81  18 2.82  35 2.83  33 2.89
  24  0.834  0.498  0.197-  36 2.76  13 2.76  15 2.77  34 2.77  21 2.77  16 2.78  18 2.79  22 2.79
                            31 2.79  27 2.80  23 2.81  33 2.89
  25  0.169  0.826  0.198-  29 2.73  17 2.74  22 2.75  26 2.75  34 2.76  16 2.77  28 2.78  27 2.80
                            11 2.80  19 2.81  10 2.83  35 2.90
  26  0.499  0.827  0.198-  29 2.72  36 2.74  23 2.75  25 2.75  17 2.76  18 2.77  30 2.79  27 2.80
                            20 2.81  11 2.82  12 2.82  35 2.91
  27  0.834  0.832  0.196-  16 2.76  18 2.77  10 2.77  30 2.77  28 2.77  12 2.77  36 2.77  34 2.79
                            21 2.79  24 2.80  25 2.80  26 2.80
  28  0.001  0.994  0.296-  34 2.76  30 2.77  27 2.77  19 2.78  25 2.78  29 2.79  31 2.81  21 2.81

  29  0.334  0.988  0.295-  26 2.72  25 2.73  32 2.76  28 2.79  35 2.80  30 2.80  19 2.82  20 2.82

  30  0.670  0.997  0.295-  27 2.77  20 2.77  28 2.77  21 2.78  36 2.78  33 2.78  26 2.79  29 2.80

  31  0.993  0.330  0.298-  33 2.70  21 2.78  32 2.78  24 2.79  34 2.79  28 2.81  22 2.84  19 2.85

  32  0.325  0.318  0.294-  39 2.23  19 2.68  22 2.75  29 2.76  20 2.77  31 2.78  23 2.81  35 2.81
                            33 2.89
  33  0.670  0.330  0.304-  37 1.63  31 2.70  30 2.78  36 2.80  21 2.88  24 2.89  32 2.89  23 2.89
                            20 2.90
  34  0.000  0.664  0.295-  22 2.75  25 2.76  28 2.76  24 2.77  36 2.77  35 2.78  27 2.79  31 2.79

  35  0.333  0.654  0.304-  34 2.78  29 2.80  32 2.81  36 2.82  23 2.83  22 2.83  39 2.90  25 2.90
                            26 2.91
  36  0.669  0.665  0.295-  26 2.74  23 2.76  24 2.76  34 2.77  27 2.77  30 2.78  33 2.80  35 2.82

  37  0.791  0.353  0.368-  33 1.63
  38  0.489  0.501  0.402-  39 1.36
  39  0.366  0.394  0.400-  38 1.36  32 2.23  35 2.90


IMPORTANT INFORMATION: All symmetrisations will be switched off!
NOSYMM: (Re-)initialisation of all symmetry stuff for point group C_1.


----------------------------------------------------------------------------------------

                                     Primitive cell                                     

  volume of cell :    1390.8369

  direct lattice vectors                    reciprocal lattice vectors
     8.358002154  0.000000000  0.000000000     0.119645817  0.000000000  0.000000000
     0.000000000  8.358002154  0.000000000     0.000000000  0.119645817  0.000000000
     0.000000000  0.000000000 19.910000000     0.000000000  0.000000000  0.050226017

  length of vectors
     8.358002154  8.358002154 19.910000000     0.119645817  0.119645817  0.050226017

  position of ions in fractional coordinates (direct lattice)
     0.166666667  0.166666667  0.000000000
     0.500000000  0.166666667  0.000000000
     0.833333333  0.166666667  0.000000000
     0.166666667  0.500000000  0.000000000
     0.500000000  0.500000000  0.000000000
     0.833333333  0.500000000  0.000000000
     0.166666667  0.833333333  0.000000000
     0.500000000  0.833333333  0.000000000
     0.833333333  0.833333333  0.000000000
     0.000000000  0.000000000  0.098945254
     0.333333333  0.000000000  0.098945254
     0.666666667  0.000000000  0.098945254
     0.000000000  0.333333333  0.098945254
     0.333333333  0.333333333  0.098945254
     0.666666667  0.333333333  0.098945254
     0.000000000  0.666666667  0.098945254
     0.333333333  0.666666667  0.098945254
     0.666666667  0.666666667  0.098945254
     0.165183712  0.162762853  0.196876546
     0.503583137  0.162814222  0.196601104
     0.834320075  0.165842108  0.196934410
     0.168176810  0.497663234  0.198585828
     0.498302715  0.497479682  0.199064509
     0.834088028  0.497730391  0.197074625
     0.169468452  0.826253871  0.197832417
     0.499036429  0.826566101  0.198251943
     0.834360561  0.832277570  0.196417534
     0.001204429  0.994102271  0.295778467
     0.334482899  0.987669076  0.294780966
     0.669510589  0.997370949  0.295110363
     0.993034479  0.329663200  0.298365197
     0.325150582  0.317923164  0.293741910
     0.670124222  0.329692283  0.303693387
     0.000380418  0.663840050  0.295119909
     0.332645412  0.653618434  0.304142033
     0.668992403  0.664540767  0.294636441
     0.790646822  0.352518325  0.367596663
     0.488828748  0.501438093  0.401874913
     0.366270688  0.393890937  0.399687510

  ion indices of the primitive-cell ions
   primitive index   ion index
                 1           1
                 2           2
                 3           3
                 4           4
                 5           5
                 6           6
                 7           7
                 8           8
                 9           9
                10          10
                11          11
                12          12
                13          13
                14          14
                15          15
                16          16
                17          17
                18          18
                19          19
                20          20
                21          21
                22          22
                23          23
                24          24
                25          25
                26          26
                27          27
                28          28
                29          29
                30          30
                31          31
                32          32
                33          33
                34          34
                35          35
                36          36
                37          37
                38          38
                39          39

----------------------------------------------------------------------------------------



 KPOINTS: KPOINTS created by Atomic Simulation Env

Automatic generation of k-mesh.
 Grid dimensions read from file:
 generate k-points for:    2    2    1

 Generating k-lattice:

  Cartesian coordinates                     Fractional coordinates (reciprocal lattice)
     0.059822909  0.000000000  0.000000000     0.500000000  0.000000000  0.000000000
     0.000000000  0.059822909  0.000000000     0.000000000  0.500000000  0.000000000
     0.000000000  0.000000000  0.050226017     0.000000000  0.000000000  1.000000000

  Length of vectors
     0.059822909  0.059822909  0.050226017

  Shift w.r.t. Gamma in fractional coordinates (k-lattice)
     0.500000000  0.500000000  0.000000000

 
 Subroutine IBZKPT returns following result:
 ===========================================
 
 Found      2 irreducible k-points:
 
 Following reciprocal coordinates:
            Coordinates               Weight
  0.250000  0.250000  0.000000      2.000000
 -0.250000  0.250000  0.000000      2.000000
 
 Following cartesian coordinates:
            Coordinates               Weight
  0.029911  0.029911  0.000000      2.000000
 -0.029911  0.029911  0.000000      2.000000
 


--------------------------------------------------------------------------------------------------------




 Dimension of arrays:
   k-points           NKPTS =      2   k-points in BZ     NKDIM =      2   number of bands    NBANDS=    220
   number of dos      NEDOS =    301   number of ions     NIONS =     39
   non local maximal  LDIM  =      6   non local SUM 2l+1 LMDIM =     18
   total plane-waves  NPLWV = 439040
   max r-space proj   IRMAX =   5010   max aug-charges    IRDMAX=  15510
   dimension x,y,z NGX =    56 NGY =   56 NGZ =  140
   dimension x,y,z NGXF=   112 NGYF=  112 NGZF=  280
   support grid    NGXF=   112 NGYF=  112 NGZF=  280
   ions per type =              36   2   1
   NGX,Y,Z   is equivalent  to a cutoff of  11.14, 11.14, 11.69 a.u.
   NGXF,Y,Z  is equivalent  to a cutoff of  22.28, 22.28, 23.38 a.u.

 SYSTEM =  unknown system                          
 POSCAR =  Pd H  S                                 

 Startparameter for this run:
   NWRITE =      2    write-flag & timer
   PREC   = accura    normal or accurate (medium, high low for compatibility)
   ISTART =      0    job   : 0-new  1-cont  2-samecut
   ICHARG =      2    charge: 1-file 2-atom 10-const
   ISPIN  =      1    spin polarized calculation?
   LNONCOLLINEAR =      F non collinear calculations
   LSORBIT =      F    spin-orbit coupling
   INIWAV =      1    electr: 0-lowe 1-rand  2-diag
   LASPH  =      F    aspherical Exc in radial PAW
 Electronic Relaxation 1
   ENCUT  =  400.0 eV  29.40 Ry    5.42 a.u.  13.63 13.63 32.47*2*pi/ulx,y,z
   ENINI  =  400.0     initial cutoff
   ENAUG  =  416.2 eV  augmentation charge cutoff
   NELM   =     60;   NELMIN=  2; NELMDL=  0     # of ELM steps 
   EDIFF  = 0.1E-03   stopping-criterion for ELM
   LREAL  =      T    real-space projection
   NLSPLINE    = F    spline interpolate recip. space projectors
   LCOMPAT=      F    compatible to vasp.4.4
   GGA_COMPAT  = T    GGA compatible to vasp.4.4-vasp.4.6
   LMAXPAW     = -100 max onsite density
   LMAXMIX     =    2 max onsite mixed and CHGCAR
   VOSKOWN=      0    Vosko Wilk Nusair interpolation
   ROPT   =   -0.00025  -0.00025  -0.00025
 Ionic relaxation
   EDIFFG = -.3E-01   stopping-criterion for IOM
   NSW    =      0    number of steps for IOM
   NBLOCK =      1;   KBLOCK =      1    inner block; outer block 
   IBRION =     -1    ionic relax: 0-MD 1-quasi-New 2-CG
   NFREE  =      0    steps in history (QN), initial steepest desc. (CG)
   ISIF   =      2    stress and relaxation
   IWAVPR =     10    prediction:  0-non 1-charg 2-wave 3-comb
   ISYM   =      0    0-nonsym 1-usesym 2-fastsym
   LCORR  =      T    Harris-Foulkes like correction to forces

   POTIM  = 0.5000    time-step for ionic-motion
   TEIN   =    0.0    initial temperature
   TEBEG  =    0.0;   TEEND  =   0.0 temperature during run
   SMASS  =  -3.00    Nose mass-parameter (am)
   estimated Nose-frequenzy (Omega)   =  0.10E-29 period in steps = 0.13E+47 mass=  -0.160E-26a.u.
   SCALEE = 1.0000    scale energy and forces
   NPACO  =    256;   APACO  = 10.0  distance and # of slots for P.C.
   PSTRESS=    0.0 pullay stress

  Mass of Ions in am
   POMASS = 106.42  1.00 32.07
  Ionic Valenz
   ZVAL   =  10.00  1.00  6.00
  Atomic Wigner-Seitz radii
   RWIGS  =  -1.00 -1.00 -1.00
  virtual crystal weights 
   VCA    =   1.00  1.00  1.00
   NELECT =     368.0000    total number of electrons
   NUPDOWN=      -1.0000    fix difference up-down

 DOS related values:
   EMIN   =  10.00;   EMAX   =-10.00  energy-range for DOS
   EFERMI =   0.00;   METHOD = LEGACY      
   ISMEAR =     1;   SIGMA  =   0.10  broadening in eV -4-tet -1-fermi 0-gaus

 Electronic relaxation 2 (details)
   IALGO  =     68    algorithm
   LDIAG  =      T    sub-space diagonalisation (order eigenvalues)
   LSUBROT=      F    optimize rotation matrix (better conditioning)
   TURBO    =      0    0=normal 1=particle mesh
   IRESTART =      0    0=no restart 2=restart with 2 vectors
   NREBOOT  =      0    no. of reboots
   NMIN     =      0    reboot dimension
   EREF     =   0.00    reference energy to select bands
   IMIX   =      4    mixing-type and parameters
     AMIX     =   0.40;   BMIX     =  1.00
     AMIX_MAG =   1.60;   BMIX_MAG =  1.00
     AMIN     =   0.10
     WC   =   100.;   INIMIX=   1;  MIXPRE=   1;  MAXMIX= -45

 Intra band minimization:
   WEIMIN = 0.0000     energy-eigenvalue tresh-hold
   EBREAK =  0.11E-06  absolut break condition
   DEPER  =   0.30     relativ break condition  

   TIME   =   0.40     timestep for ELM

  volume/ion in A,a.u.               =      35.66       240.66
  Fermi-wavevector in a.u.,A,eV,Ry     =   1.050990  1.986084 15.028731  1.104581
  Thomas-Fermi vector in A             =   2.186016

 Write flags
   LWAVE        =      F    write WAVECAR
   LDOWNSAMPLE  =      F    k-point downsampling of WAVECAR
   LCHARG       =      F    write CHGCAR
   LVTOT        =      F    write LOCPOT, total local potential
   LVHAR        =      F    write LOCPOT, Hartree potential only
   WRT_POTENTIAL= false  ! write potential to hdf5 file
   LELF         =      F    write electronic localiz. function (ELF)
   LORBIT       =      0    0 simple, 1 ext, 2 COOP (PROOUT), +10 PAW based schemes


 Dipole corrections
   LMONO      =      F    monopole corrections only (constant potential shift)
   LDIPOL     =      T    correct potential (dipole corrections)
   IDIPOL     =      3    1-x, 2-y, 3-z, 4-all directions 
   EPSILON    =  1.0000000 bulk dielectric constant
   LVACPOTAV  =      F  vacuum potentials using an averaging scheme for the charge density
   VACPOTFLAT =  0.1000000 required flatness to determine vacuum potential
 Exchange correlation treatment:
   GGA     = PE    functional components
   XC_C    = 1    coefficients multiplying the functional components
   LIBXC   =     F    Libxc                    
   VOSKOWN =     0    Vosko Wilk Nusair interpolation
   LHFCALC =     F    Hartree Fock is set to
   LHFONE  =     F    Hartree Fock one center treatment
   AEXX    =    0.0000 exact exchange contribution

 Parameters of functionals:
   PE:
     No parameter

 Van der Waals corrections
   IVDW    =     0    specifies the selected vdW correction

 Linear response parameters
   LEPSILON=     F    determine dielectric tensor
   LRPA    =     F    only Hartree local field effects (RPA)
   LNABLA  =     F    use nabla operator in PAW spheres
   LVEL    =     F    velocity operator in full k-point grid
   CSHIFT  =0.1000    complex shift for real part using Kramers Kronig
   OMEGAMAX=  -1.0    maximum frequency
   DEG_THRESHOLD= 0.2000000E-02 threshold for treating states as degnerate
   RTIME   =   -0.100 relaxation time in fs
  (WPLASMAI=    0.000 imaginary part of plasma frequency in eV, 0.658/RTIME)
   DFIELD  = 0.0000000 0.0000000 0.0000000 field for delta impulse in time

  Optional k-point grid parameters
   LKPOINTS_OPT  =     F    use optional k-point grid
   KPOINTS_OPT_MODE=     1    mode for optional k-point grid

 Orbital magnetization related:
   ORBITALMAG=     F  switch on orbital magnetization
   LCHIMAG   =     F  perturbation theory with respect to B field
   DQ        =  0.001000  dq finite difference perturbation B field
   LLRAUG    =     F  two centre corrections for induced B field
   LBONE     =     F  B-component reconstruction in AE one-centre
   LVGVCALC  =     T  calculate vGv susceptibility
   LVGVAPPL  =     F  apply vGv susceptibility instead of pGv for G=0

 Random number generation:
   RANDOM_GENERATOR = DEFAULT
   PCG_SEED         = not used


--------------------------------------------------------------------------------------------------------


 Static calculation
 charge density and potential will be updated during run
 non-spin polarized calculation
 RMM-DIIS sequential band-by-band and
  variant of blocked Davidson during initial phase
 perform sub-space diagonalisation
    before iterative eigenvector-optimisation
 modified Broyden-mixing scheme, WC =      100.0
 initial mixing is a Kerker type mixing with AMIX =  0.4000 and BMIX =      1.0000
 Hartree-type preconditioning will be used
 using additional bands           36
 real space projection scheme for non local part
 use partial core corrections
 calculate Harris-corrections to forces   (improved forces if not selfconsistent)
 use gradient corrections 
 use of overlap-Matrix (Vanderbilt PP)
 Methfessel and Paxton  Order N= 1 SIGMA  =   0.10


--------------------------------------------------------------------------------------------------------


  energy-cutoff  :      400.00
  volume of cell :     1390.84
      direct lattice vectors                 reciprocal lattice vectors
     8.358002154  0.000000000  0.000000000     0.119645817  0.000000000  0.000000000
     0.000000000  8.358002154  0.000000000     0.000000000  0.119645817  0.000000000
     0.000000000  0.000000000 19.910000000     0.000000000  0.000000000  0.050226017

  length of vectors
     8.358002154  8.358002154 19.910000000     0.119645817  0.119645817  0.050226017



 k-points in units of 2pi/SCALE and weight: KPOINTS created by Atomic Simulation Env
   0.02991145  0.02991145  0.00000000       0.500
  -0.02991145  0.02991145  0.00000000       0.500

 k-points in reciprocal lattice and weights: KPOINTS created by Atomic Simulation Env
   0.25000000  0.25000000  0.00000000       0.500
  -0.25000000  0.25000000  0.00000000       0.500

 position of ions in fractional coordinates (direct lattice) 
   0.16666667  0.16666667  0.00000000
   0.50000000  0.16666667  0.00000000
   0.83333333  0.16666667  0.00000000
   0.16666667  0.50000000  0.00000000
   0.50000000  0.50000000  0.00000000
   0.83333333  0.50000000  0.00000000
   0.16666667  0.83333333  0.00000000
   0.50000000  0.83333333  0.00000000
   0.83333333  0.83333333  0.00000000
   0.00000000  0.00000000  0.09894525
   0.33333333  0.00000000  0.09894525
   0.66666667  0.00000000  0.09894525
   0.00000000  0.33333333  0.09894525
   0.33333333  0.33333333  0.09894525
   0.66666667  0.33333333  0.09894525
   0.00000000  0.66666667  0.09894525
   0.33333333  0.66666667  0.09894525
   0.66666667  0.66666667  0.09894525
   0.16518371  0.16276285  0.19687655
   0.50358314  0.16281422  0.19660110
   0.83432008  0.16584211  0.19693441
   0.16817681  0.49766323  0.19858583
   0.49830272  0.49747968  0.19906451
   0.83408803  0.49773039  0.19707463
   0.16946845  0.82625387  0.19783242
   0.49903643  0.82656610  0.19825194
   0.83436056  0.83227757  0.19641753
   0.00120443  0.99410227  0.29577847
   0.33448290  0.98766908  0.29478097
   0.66951059  0.99737095  0.29511036
   0.99303448  0.32966320  0.29836520
   0.32515058  0.31792316  0.29374191
   0.67012422  0.32969228  0.30369339
   0.00038042  0.66384005  0.29511991
   0.33264541  0.65361843  0.30414203
   0.66899240  0.66454077  0.29463644
   0.79064682  0.35251832  0.36759666
   0.48882875  0.50143809  0.40187491
   0.36627069  0.39389094  0.39968751

 position of ions in cartesian coordinates  (Angst):
   1.39300036  1.39300036  0.00000000
   4.17900108  1.39300036  0.00000000
   6.96500179  1.39300036  0.00000000
   1.39300036  4.17900108  0.00000000
   4.17900108  4.17900108  0.00000000
   6.96500179  4.17900108  0.00000000
   1.39300036  6.96500179  0.00000000
   4.17900108  6.96500179  0.00000000
   6.96500179  6.96500179  0.00000000
   0.00000000  0.00000000  1.97000000
   2.78600072  0.00000000  1.97000000
   5.57200144  0.00000000  1.97000000
   0.00000000  2.78600072  1.97000000
   2.78600072  2.78600072  1.97000000
   5.57200144  2.78600072  1.97000000
   0.00000000  5.57200144  1.97000000
   2.78600072  5.57200144  1.97000000
   5.57200144  5.57200144  1.97000000
   1.38060582  1.36037227  3.91981202
   4.20894894  1.36080162  3.91432798
   6.97324899  1.38610870  3.92096411
   1.40562214  4.15947039  3.95384383
   4.16481517  4.15793626  3.96337438
   6.97130953  4.16003168  3.92375579
   1.41641769  6.90583164  3.93884343
   4.17094755  6.90844125  3.94719618
   6.97358736  6.95617772  3.91067310
   0.01006662  8.30870892  5.88894928
   2.79560879  8.25494026  5.86908903
   5.59577094  8.33602854  5.87564732
   8.29978432  2.75532574  5.94045107
   2.71760926  2.65720249  5.84840143
   5.60089969  2.75556881  6.04653533
   0.00317953  5.54837657  5.87583739
   2.78025107  5.46294428  6.05546787
   5.59143995  5.55423316  5.86621153
   6.60822784  2.94634892  7.31884956
   4.08563173  4.19102066  8.00132953
   3.06129120  3.29214130  7.95777832



--------------------------------------------------------------------------------------------------------


 k-point     1 :   0.2500 0.2500 0.0000  plane waves:   25289
 k-point     2 :  -0.2500 0.2500 0.0000  plane waves:   25289

 maximum and minimum number of plane-waves per node :      1059     1047

 maximum number of plane-waves:     25289
 maximum index in each direction: 
   IXMAX=   13   IYMAX=   13   IZMAX=   32
   IXMIN=  -13   IYMIN=  -13   IZMIN=  -32


 real space projection operators:
  total allocation   :      24822.82 KBytes
  max/ min on nodes  :       1349.22        861.42


 parallel 3D FFT for wavefunctions:
    minimum data exchange during FFTs selected (reduces bandwidth)
 parallel 3D FFT for charge:
    minimum data exchange during FFTs selected (reduces bandwidth)


 total amount of memory used by VASP MPI-rank0    49481. kBytes
=======================================================================

   base      :      30000. kBytes
   nonlr-proj:       4923. kBytes
   fftplans  :       3716. kBytes
   grid      :       6996. kBytes
   one-center:         31. kBytes
   wavefun   :       3815. kBytes

     INWAV:  cpu time      0.0000: real time      0.0000
 Broyden mixing: mesh for mixing (old mesh)
   NGX = 27   NGY = 27   NGZ = 65
  (NGX  =112   NGY  =112   NGZ  =280)
  gives a total of  47385 points

 initial charge density was supplied:
 charge density of overlapping atoms calculated
 number of electron     368.0000000 magnetization 
 keeping initial charge density in first step


--------------------------------------------------------------------------------------------------------


 Maximum index for non-local projection operator          509
 Maximum index for augmentation-charges          744 (set IRDMAX)


--------------------------------------------------------------------------------------------------------


 First call to EWALD:  gamma=   0.159
 Maximum number of real-space cells 4x 4x 2
 Maximum number of reciprocal cells 2x 2x 5

    FEWALD:  cpu time      0.0015: real time      0.0015


--------------------------------------- Ionic step        1  -------------------------------------------




--------------------------------------- Iteration      1(   1)  ---------------------------------------


    POTLOK:  cpu time      0.0430: real time      0.0444
    SETDIJ:  cpu time      0.0077: real time      0.0077
     EDDAV:  cpu time      0.9616: real time      0.9677
       DOS:  cpu time      0.0006: real time      0.0006
    --------------------------------------------
      LOOP:  cpu time      1.0128: real time      1.0204

 eigenvalue-minimisations  :   880
 total energy-change (2. order) : 0.2110188E+04  (-0.1472166E+05)
 number of electron     368.0000000 magnetization 
 augmentation part      368.0000000 magnetization 

 DIPCOR: dipole corrections for dipol
 direction  3 min pos   185,
 dipolmoment           0.000000      0.000000     -0.000028 electrons x Angstroem
 Tr[quadrupol]     -4525.150946

 energy correction for charged system         0.000000 eV
 dipol+quadrupol energy correction           -0.000000 eV
 added-field ion interaction         -0.000088 eV  (added to PSCEN)


 Free energy of the ion-electron system (eV)
  ---------------------------------------------------
  alpha Z        PSCENC =       628.75256062
  Ewald energy   TEWEN  =     75235.53624182
  -Hartree energ DENC   =   -105973.72315420
  -exchange      EXHF   =         0.00000000
  -V(xc)+E(xc)   XCENC  =     -1046.93405220
  PAW double counting   =     29264.33151030   -27021.15649540
  entropy T*S    EENTRO =        -0.01506283
  eigenvalues    EBANDS =      1570.84045941
  atomic energy  EATOM  =     29452.55580095
  Solvation  Ediel_sol  =         0.00000000
  ---------------------------------------------------
  free energy    TOTEN  =      2110.18780847 eV

  energy without entropy =     2110.20287131  energy(sigma->0) =     2110.19282942


--------------------------------------------------------------------------------------------------------




--------------------------------------- Iteration      1(   2)  ---------------------------------------


     EDDAV:  cpu time      0.9612: real time      0.9668
       DOS:  cpu time      0.0008: real time      0.0008
    --------------------------------------------
      LOOP:  cpu time      0.9620: real time      0.9676

 eigenvalue-minimisations  :   984
 total energy-change (2. order) :-0.2171473E+04  (-0.2032781E+04)
 number of electron     368.0000000 magnetization 
 augmentation part      368.0000000 magnetization 

 DIPCOR: dipole corrections for dipol
 direction  3 min pos   185,
 dipolmoment           0.000000      0.000000     -0.000028 electrons x Angstroem
 Tr[quadrupol]     -4525.150946

 energy correction for charged system         0.000000 eV
 dipol+quadrupol energy correction           -0.000000 eV
 added-field ion interaction         -0.000088 eV  (added to PSCEN)


 Free energy of the ion-electron system (eV)
  ---------------------------------------------------
  alpha Z        PSCENC =       628.75256062
  Ewald energy   TEWEN  =     75235.53624182
  -Hartree energ DENC   =   -105973.72315420
  -exchange      EXHF   =         0.00000000
  -V(xc)+E(xc)   XCENC  =     -1046.93405220
  PAW double counting   =     29264.33151030   -27021.15649540
  entropy T*S    EENTRO =         0.01714825
  eigenvalues    EBANDS =      -600.66502699
  atomic energy  EATOM  =     29452.55580095
  Solvation  Ediel_sol  =         0.00000000
  ---------------------------------------------------
  free energy    TOTEN  =       -61.28546684 eV

  energy without entropy =      -61.30261509  energy(sigma->0) =      -61.29118292


--------------------------------------------------------------------------------------------------------




--------------------------------------- Iteration      1(   3)  ---------------------------------------


     EDDAV:  cpu time      0.9975: real time      1.0031
       DOS:  cpu time      0.0008: real time      0.0008
    --------------------------------------------
      LOOP:  cpu time      0.9983: real time      1.0039

 eigenvalue-minimisations  :  1032
 total energy-change (2. order) :-0.1292927E+03  (-0.1139175E+03)
 number of electron     368.0000000 magnetization 
 augmentation part      368.0000000 magnetization 

 DIPCOR: dipole corrections for dipol
 direction  3 min pos   185,
 dipolmoment           0.000000      0.000000     -0.000028 electrons x Angstroem
 Tr[quadrupol]     -4525.150946

 energy correction for charged system         0.000000 eV
 dipol+quadrupol energy correction           -0.000000 eV
 added-field ion interaction         -0.000088 eV  (added to PSCEN)


 Free energy of the ion-electron system (eV)
  ---------------------------------------------------
  alpha Z        PSCENC =       628.75256062
  Ewald energy   TEWEN  =     75235.53624182
  -Hartree energ DENC   =   -105973.72315420
  -exchange      EXHF   =         0.00000000
  -V(xc)+E(xc)   XCENC  =     -1046.93405220
  PAW double counting   =     29264.33151030   -27021.15649540
  entropy T*S    EENTRO =        -0.06437816
  eigenvalues    EBANDS =      -729.87619932
  atomic energy  EATOM  =     29452.55580095
  Solvation  Ediel_sol  =         0.00000000
  ---------------------------------------------------
  free energy    TOTEN  =      -190.57816558 eV

  energy without entropy =     -190.51378742  energy(sigma->0) =     -190.55670619


--------------------------------------------------------------------------------------------------------




--------------------------------------- Iteration      1(   4)  ---------------------------------------


     EDDAV:  cpu time      0.9937: real time      1.0000
       DOS:  cpu time      0.0007: real time      0.0007
    --------------------------------------------
      LOOP:  cpu time      0.9945: real time      1.0007

 eigenvalue-minimisations  :  1040
 total energy-change (2. order) :-0.5012541E+01  (-0.4869304E+01)
 number of electron     368.0000000 magnetization 
 augmentation part      368.0000000 magnetization 

 DIPCOR: dipole corrections for dipol
 direction  3 min pos   185,
 dipolmoment           0.000000      0.000000     -0.000028 electrons x Angstroem
 Tr[quadrupol]     -4525.150946

 energy correction for charged system         0.000000 eV
 dipol+quadrupol energy correction           -0.000000 eV
 added-field ion interaction         -0.000088 eV  (added to PSCEN)


 Free energy of the ion-electron system (eV)
  ---------------------------------------------------
  alpha Z        PSCENC =       628.75256062
  Ewald energy   TEWEN  =     75235.53624182
  -Hartree energ DENC   =   -105973.72315420
  -exchange      EXHF   =         0.00000000
  -V(xc)+E(xc)   XCENC  =     -1046.93405220
  PAW double counting   =     29264.33151030   -27021.15649540
  entropy T*S    EENTRO =        -0.07925455
  eigenvalues    EBANDS =      -734.87386401
  atomic energy  EATOM  =     29452.55580095
  Solvation  Ediel_sol  =         0.00000000
  ---------------------------------------------------
  free energy    TOTEN  =      -195.59070666 eV

  energy without entropy =     -195.51145211  energy(sigma->0) =     -195.56428848


--------------------------------------------------------------------------------------------------------




--------------------------------------- Iteration      1(   5)  ---------------------------------------


     EDDAV:  cpu time      1.0544: real time      1.0603
       DOS:  cpu time      0.0008: real time      0.0008
    CHARGE:  cpu time      0.0456: real time      0.0461
    MIXING:  cpu time      0.0010: real time      0.0010
    --------------------------------------------
      LOOP:  cpu time      1.1018: real time      1.1081

 eigenvalue-minimisations  :  1088
 total energy-change (2. order) :-0.1660865E+00  (-0.1658320E+00)
 number of electron     367.9999992 magnetization 
 augmentation part      145.4953388 magnetization 

 DIPCOR: dipole corrections for dipol
 direction  3 min pos   185,
 dipolmoment           0.000000      0.000000     -0.000028 electrons x Angstroem
 Tr[quadrupol]     -4525.150946

 energy correction for charged system         0.000000 eV
 dipol+quadrupol energy correction           -0.000000 eV
 added-field ion interaction         -0.000088 eV  (added to PSCEN)


 Broyden mixing:
  rms(total) = 0.37636E+01    rms(broyden)= 0.37633E+01
  rms(prec ) = 0.38611E+01
  weight for this iteration     100.00

 Free energy of the ion-electron system (eV)
  ---------------------------------------------------
  alpha Z        PSCENC =       628.75256062
  Ewald energy   TEWEN  =     75235.53624182
  -Hartree energ DENC   =   -105973.72315420
  -exchange      EXHF   =         0.00000000
  -V(xc)+E(xc)   XCENC  =     -1046.93405220
  PAW double counting   =     29264.33151030   -27021.15649540
  entropy T*S    EENTRO =        -0.07931293
  eigenvalues    EBANDS =      -735.03989211
  atomic energy  EATOM  =     29452.55580095
  Solvation  Ediel_sol  =         0.00000000
  ---------------------------------------------------
  free energy    TOTEN  =      -195.75679314 eV

  energy without entropy =     -195.67748021  energy(sigma->0) =     -195.73035550


--------------------------------------------------------------------------------------------------------




--------------------------------------- Iteration      1(   6)  ---------------------------------------


    POTLOK:  cpu time      0.0355: real time      0.0357
    SETDIJ:  cpu time      0.0075: real time      0.0075
    EDDIAG:  cpu time      0.1504: real time      0.1513
  RMM-DIIS:  cpu time      0.5287: real time      0.5316
    ORTHCH:  cpu time      0.0225: real time      0.0226
       DOS:  cpu time      0.0006: real time      0.0006
    CHARGE:  cpu time      0.0430: real time      0.0431
    MIXING:  cpu time      0.0009: real time      0.0009
    --------------------------------------------
      LOOP:  cpu time      0.7890: real time      0.7933

 eigenvalue-minimisations  :   885
 total energy-change (2. order) : 0.7841314E+01  (-0.2671272E+01)
 number of electron     367.9999992 magnetization 
 augmentation part      150.7085904 magnetization 

 DIPCOR: dipole corrections for dipol
 direction  3 min pos   191,
 dipolmoment           0.000000      0.000000     -0.045141 electrons x Angstroem
 Tr[quadrupol]     -4528.181818

 energy correction for charged system         0.000000 eV
 dipol+quadrupol energy correction           -0.000133 eV
 added-field ion interaction         -1.065465 eV  (added to PSCEN)


 Broyden mixing:
  rms(total) = 0.20274E+01    rms(broyden)= 0.20273E+01
  rms(prec ) = 0.21153E+01
  weight for this iteration     100.00

 eigenvalues of (default mixing * dielectric matrix)
  average eigenvalue GAMMA=   1.4634
  1.4634

 Free energy of the ion-electron system (eV)
  ---------------------------------------------------
  alpha Z        PSCENC =       627.68705172
  Ewald energy   TEWEN  =     75235.53624182
  -Hartree energ DENC   =   -105833.90133797
  -exchange      EXHF   =         0.00000000
  -V(xc)+E(xc)   XCENC  =     -1053.39731978
  PAW double counting   =     31202.96696057   -28998.53895777
  entropy T*S    EENTRO =        -0.04897929
  eigenvalues    EBANDS =      -820.77493957
  atomic energy  EATOM  =     29452.55580095
  Solvation  Ediel_sol  =         0.00000000
  ---------------------------------------------------
  free energy    TOTEN  =      -187.91547933 eV

  energy without entropy =     -187.86650003  energy(sigma->0) =     -187.89915290


--------------------------------------------------------------------------------------------------------




--------------------------------------- Iteration      1(   7)  ---------------------------------------


    POTLOK:  cpu time      0.0343: real time      0.0345
    SETDIJ:  cpu time      0.0073: real time      0.0073
    EDDIAG:  cpu time      0.1487: real time      0.1493
  RMM-DIIS:  cpu time      0.5530: real time      0.5561
    ORTHCH:  cpu time      0.0227: real time      0.0228
       DOS:  cpu time      0.0006: real time      0.0006
    CHARGE:  cpu time      0.0431: real time      0.0433
    MIXING:  cpu time      0.0009: real time      0.0009
    --------------------------------------------
      LOOP:  cpu time      0.8105: real time      0.8148

 eigenvalue-minimisations  :   969
 total energy-change (2. order) :-0.2500071E+02  (-0.1806209E+01)
 number of electron     367.9999989 magnetization 
 augmentation part      149.4181090 magnetization 

 DIPCOR: dipole corrections for dipol
 direction  3 min pos   183,
 dipolmoment           0.000000      0.000000      1.088423 electrons x Angstroem
 Tr[quadrupol]     -4532.142376

 energy correction for charged system         0.000000 eV
 dipol+quadrupol energy correction           -0.077068 eV
 added-field ion interaction         -3.955070 eV  (added to PSCEN)


 Broyden mixing:
  rms(total) = 0.39381E+01    rms(broyden)= 0.39379E+01
  rms(prec ) = 0.59586E+01
  weight for this iteration     100.00

 eigenvalues of (default mixing * dielectric matrix)
  average eigenvalue GAMMA=   0.9558
  1.6959  0.2157

 Free energy of the ion-electron system (eV)
  ---------------------------------------------------
  alpha Z        PSCENC =       624.72051160
  Ewald energy   TEWEN  =     75235.53624182
  -Hartree energ DENC   =   -105933.85911573
  -exchange      EXHF   =         0.00000000
  -V(xc)+E(xc)   XCENC  =     -1054.12431689
  PAW double counting   =     32876.49154084   -30692.92598032
  entropy T*S    EENTRO =         0.01109913
  eigenvalues    EBANDS =      -721.32196807
  atomic energy  EATOM  =     29452.55580095
  Solvation  Ediel_sol  =         0.00000000
  ---------------------------------------------------
  free energy    TOTEN  =      -212.91618666 eV

  energy without entropy =     -212.92728580  energy(sigma->0) =     -212.91988638


--------------------------------------------------------------------------------------------------------




--------------------------------------- Iteration      1(   8)  ---------------------------------------


    POTLOK:  cpu time      0.0346: real time      0.0348
    SETDIJ:  cpu time      0.0079: real time      0.0079
    EDDIAG:  cpu time      0.1473: real time      0.1479
  RMM-DIIS:  cpu time      0.5607: real time      0.5637
    ORTHCH:  cpu time      0.0225: real time      0.0226
       DOS:  cpu time      0.0006: real time      0.0006
    CHARGE:  cpu time      0.0426: real time      0.0428
    MIXING:  cpu time      0.0008: real time      0.0008
    --------------------------------------------
      LOOP:  cpu time      0.8171: real time      0.8211

 eigenvalue-minimisations  :   968
 total energy-change (2. order) : 0.1815312E+02  (-0.1412962E+01)
 number of electron     367.9999994 magnetization 
 augmentation part      150.4314439 magnetization 

 DIPCOR: dipole corrections for dipol
 direction  3 min pos   189,
 dipolmoment           0.000000      0.000000     -0.529009 electrons x Angstroem
 Tr[quadrupol]     -4532.697345

 energy correction for charged system         0.000000 eV
 dipol+quadrupol energy correction           -0.018206 eV
 added-field ion interaction         -8.884123 eV  (added to PSCEN)


 Broyden mixing:
  rms(total) = 0.22737E+01    rms(broyden)= 0.22733E+01
  rms(prec ) = 0.32431E+01
  weight for this iteration     100.00

 eigenvalues of (default mixing * dielectric matrix)
  average eigenvalue GAMMA=   0.8054
  1.8708  0.4253  0.1200

 Free energy of the ion-electron system (eV)
  ---------------------------------------------------
  alpha Z        PSCENC =       619.85032062
  Ewald energy   TEWEN  =     75235.53624182
  -Hartree energ DENC   =   -105944.88157393
  -exchange      EXHF   =         0.00000000
  -V(xc)+E(xc)   XCENC  =     -1054.49679537
  PAW double counting   =     33275.05088109   -31097.47884964
  entropy T*S    EENTRO =         0.00458815
  eigenvalues    EBANDS =      -680.90368184
  atomic energy  EATOM  =     29452.55580095
  Solvation  Ediel_sol  =         0.00000000
  ---------------------------------------------------
  free energy    TOTEN  =      -194.76306815 eV

  energy without entropy =     -194.76765630  energy(sigma->0) =     -194.76459754


--------------------------------------------------------------------------------------------------------




--------------------------------------- Iteration      1(   9)  ---------------------------------------


    POTLOK:  cpu time      0.0346: real time      0.0347
    SETDIJ:  cpu time      0.0080: real time      0.0081
    EDDIAG:  cpu time      0.1470: real time      0.1476
  RMM-DIIS:  cpu time      0.5335: real time      0.5363
    ORTHCH:  cpu time      0.0225: real time      0.0226
       DOS:  cpu time      0.0005: real time      0.0005
    CHARGE:  cpu time      0.0426: real time      0.0428
    MIXING:  cpu time      0.0008: real time      0.0008
    --------------------------------------------
      LOOP:  cpu time      0.7896: real time      0.7935

 eigenvalue-minimisations  :   918
 total energy-change (2. order) : 0.5268101E+01  (-0.7335597E+00)
 number of electron     367.9999992 magnetization 
 augmentation part      151.3016210 magnetization 

 DIPCOR: dipole corrections for dipol
 direction  3 min pos   192,
 dipolmoment           0.000000      0.000000     -0.042890 electrons x Angstroem
 Tr[quadrupol]     -4532.537991

 energy correction for charged system         0.000000 eV
 dipol+quadrupol energy correction           -0.000120 eV
 added-field ion interaction         -1.158355 eV  (added to PSCEN)


 Broyden mixing:
  rms(total) = 0.15535E+01    rms(broyden)= 0.15532E+01
  rms(prec ) = 0.19606E+01
  weight for this iteration     100.00

 eigenvalues of (default mixing * dielectric matrix)
  average eigenvalue GAMMA=   0.7669
  2.0395  0.6948  0.2170  0.1165

 Free energy of the ion-electron system (eV)
  ---------------------------------------------------
  alpha Z        PSCENC =       627.59417436
  Ewald energy   TEWEN  =     75235.53624182
  -Hartree energ DENC   =   -105920.12965180
  -exchange      EXHF   =         0.00000000
  -V(xc)+E(xc)   XCENC  =     -1054.59573803
  PAW double counting   =     33610.00458089   -31437.32168844
  entropy T*S    EENTRO =        -0.03263057
  eigenvalues    EBANDS =      -703.10605585
  atomic energy  EATOM  =     29452.55580095
  Solvation  Ediel_sol  =         0.00000000
  ---------------------------------------------------
  free energy    TOTEN  =      -189.49496667 eV

  energy without entropy =     -189.46233610  energy(sigma->0) =     -189.48408981


--------------------------------------------------------------------------------------------------------




--------------------------------------- Iteration      1(  10)  ---------------------------------------


    POTLOK:  cpu time      0.0347: real time      0.0348
    SETDIJ:  cpu time      0.0081: real time      0.0082
    EDDIAG:  cpu time      0.1467: real time      0.1474
  RMM-DIIS:  cpu time      0.5438: real time      0.5468
    ORTHCH:  cpu time      0.0227: real time      0.0228
       DOS:  cpu time      0.0006: real time      0.0006
    CHARGE:  cpu time      0.0426: real time      0.0427
    MIXING:  cpu time      0.0010: real time      0.0010
    --------------------------------------------
      LOOP:  cpu time      0.8002: real time      0.8043

 eigenvalue-minimisations  :   939
 total energy-change (2. order) : 0.1350827E+00  (-0.3915415E+00)
 number of electron     367.9999993 magnetization 
 augmentation part      151.5107572 magnetization 

 DIPCOR: dipole corrections for dipol
 direction  3 min pos   193,
 dipolmoment           0.000000      0.000000     -0.211055 electrons x Angstroem
 Tr[quadrupol]     -4531.726389

 energy correction for charged system         0.000000 eV
 dipol+quadrupol energy correction           -0.002898 eV
 added-field ion interaction         -6.418685 eV  (added to PSCEN)


 Broyden mixing:
  rms(total) = 0.15909E+01    rms(broyden)= 0.15907E+01
  rms(prec ) = 0.22461E+01
  weight for this iteration     100.00

 eigenvalues of (default mixing * dielectric matrix)
  average eigenvalue GAMMA=   0.7691
  2.3270  0.9813  0.2141  0.2141  0.1091

 Free energy of the ion-electron system (eV)
  ---------------------------------------------------
  alpha Z        PSCENC =       622.33106603
  Ewald energy   TEWEN  =     75235.53624182
  -Hartree energ DENC   =   -105903.59465574
  -exchange      EXHF   =         0.00000000
  -V(xc)+E(xc)   XCENC  =     -1054.41515949
  PAW double counting   =     33836.56651879   -31666.13799599
  entropy T*S    EENTRO =        -0.00482152
  eigenvalues    EBANDS =      -712.19687879
  atomic energy  EATOM  =     29452.55580095
  Solvation  Ediel_sol  =         0.00000000
  ---------------------------------------------------
  free energy    TOTEN  =      -189.35988393 eV

  energy without entropy =     -189.35506241  energy(sigma->0) =     -189.35827676


--------------------------------------------------------------------------------------------------------




--------------------------------------- Iteration      1(  11)  ---------------------------------------


    POTLOK:  cpu time      0.0350: real time      0.0351
    SETDIJ:  cpu time      0.0084: real time      0.0085
    EDDIAG:  cpu time      0.1478: real time      0.1484
  RMM-DIIS:  cpu time      0.5381: real time      0.5411
    ORTHCH:  cpu time      0.0225: real time      0.0226
       DOS:  cpu time      0.0005: real time      0.0005
    CHARGE:  cpu time      0.0428: real time      0.0429
    MIXING:  cpu time      0.0009: real time      0.0009
    --------------------------------------------
      LOOP:  cpu time      0.7960: real time      0.8001

 eigenvalue-minimisations  :   934
 total energy-change (2. order) : 0.1049010E+01  (-0.2275450E+00)
 number of electron     367.9999992 magnetization 
 augmentation part      151.4071584 magnetization 

 DIPCOR: dipole corrections for dipol
 direction  3 min pos   194,
 dipolmoment           0.000000      0.000000      0.109582 electrons x Angstroem
 Tr[quadrupol]     -4533.081478

 energy correction for charged system         0.000000 eV
 dipol+quadrupol energy correction           -0.000781 eV
 added-field ion interaction          3.705740 eV  (added to PSCEN)


 Broyden mixing:
  rms(total) = 0.11215E+01    rms(broyden)= 0.11211E+01
  rms(prec ) = 0.15731E+01
  weight for this iteration     100.00

 eigenvalues of (default mixing * dielectric matrix)
  average eigenvalue GAMMA=   0.7055
  2.3787  1.0717  0.2312  0.2312  0.2156  0.1043

 Free energy of the ion-electron system (eV)
  ---------------------------------------------------
  alpha Z        PSCENC =       632.45760822
  Ewald energy   TEWEN  =     75235.53624182
  -Hartree energ DENC   =   -105931.60711288
  -exchange      EXHF   =         0.00000000
  -V(xc)+E(xc)   XCENC  =     -1054.35169764
  PAW double counting   =     34167.88188540   -32000.70399309
  entropy T*S    EENTRO =        -0.06638295
  eigenvalues    EBANDS =      -690.01322424
  atomic energy  EATOM  =     29452.55580095
  Solvation  Ediel_sol  =         0.00000000
  ---------------------------------------------------
  free energy    TOTEN  =      -188.31087440 eV

  energy without entropy =     -188.24449146  energy(sigma->0) =     -188.28874675


--------------------------------------------------------------------------------------------------------




--------------------------------------- Iteration      1(  12)  ---------------------------------------


    POTLOK:  cpu time      0.0349: real time      0.0350
    SETDIJ:  cpu time      0.0086: real time      0.0086
    EDDIAG:  cpu time      0.1478: real time      0.1485
  RMM-DIIS:  cpu time      0.5197: real time      0.5225
    ORTHCH:  cpu time      0.0226: real time      0.0227
       DOS:  cpu time      0.0006: real time      0.0006
    CHARGE:  cpu time      0.0426: real time      0.0427
    MIXING:  cpu time      0.0009: real time      0.0009
    --------------------------------------------
      LOOP:  cpu time      0.7777: real time      0.7816

 eigenvalue-minimisations  :   902
 total energy-change (2. order) : 0.1322902E+01  (-0.9835942E-01)
 number of electron     367.9999992 magnetization 
 augmentation part      151.3559143 magnetization 

 DIPCOR: dipole corrections for dipol
 direction  3 min pos   194,
 dipolmoment           0.000000      0.000000     -0.003608 electrons x Angstroem
 Tr[quadrupol]     -4533.112981

 energy correction for charged system         0.000000 eV
 dipol+quadrupol energy correction           -0.000001 eV
 added-field ion interaction         -0.122017 eV  (added to PSCEN)


 Broyden mixing:
  rms(total) = 0.43472E+00    rms(broyden)= 0.43430E+00
  rms(prec ) = 0.51363E+00
  weight for this iteration     100.00

 eigenvalues of (default mixing * dielectric matrix)
  average eigenvalue GAMMA=   0.6426
  2.3144  1.0679  0.2942  0.2942  0.2229  0.1998  0.1049

 Free energy of the ion-electron system (eV)
  ---------------------------------------------------
  alpha Z        PSCENC =       628.63063101
  Ewald energy   TEWEN  =     75235.53624182
  -Hartree energ DENC   =   -105939.66266343
  -exchange      EXHF   =         0.00000000
  -V(xc)+E(xc)   XCENC  =     -1054.19757241
  PAW double counting   =     34247.82466100   -32080.81909325
  entropy T*S    EENTRO =        -0.08078036
  eigenvalues    EBANDS =      -676.77519762
  atomic energy  EATOM  =     29452.55580095
  Solvation  Ediel_sol  =         0.00000000
  ---------------------------------------------------
  free energy    TOTEN  =      -186.98797229 eV

  energy without entropy =     -186.90719193  energy(sigma->0) =     -186.96104550


--------------------------------------------------------------------------------------------------------




--------------------------------------- Iteration      1(  13)  ---------------------------------------


    POTLOK:  cpu time      0.0346: real time      0.0348
    SETDIJ:  cpu time      0.0087: real time      0.0087
    EDDIAG:  cpu time      0.1485: real time      0.1492
  RMM-DIIS:  cpu time      0.5270: real time      0.5299
    ORTHCH:  cpu time      0.0226: real time      0.0227
       DOS:  cpu time      0.0007: real time      0.0007
    CHARGE:  cpu time      0.0426: real time      0.0428
    MIXING:  cpu time      0.0010: real time      0.0010
    --------------------------------------------
      LOOP:  cpu time      0.7857: real time      0.7896

 eigenvalue-minimisations  :   905
 total energy-change (2. order) : 0.1489729E+00  (-0.2623695E-01)
 number of electron     367.9999992 magnetization 
 augmentation part      151.2846880 magnetization 

 DIPCOR: dipole corrections for dipol
 direction  3 min pos   194,
 dipolmoment           0.000000      0.000000      0.001726 electrons x Angstroem
 Tr[quadrupol]     -4533.110683

 energy correction for charged system         0.000000 eV
 dipol+quadrupol energy correction           -0.000000 eV
 added-field ion interaction          0.058353 eV  (added to PSCEN)


 Broyden mixing:
  rms(total) = 0.28781E+00    rms(broyden)= 0.28768E+00
  rms(prec ) = 0.35820E+00
  weight for this iteration     100.00

 eigenvalues of (default mixing * dielectric matrix)
  average eigenvalue GAMMA=   0.6025
  2.2712  1.0521  0.3882  0.3882  0.1046  0.2044  0.2044  0.2065

 Free energy of the ion-electron system (eV)
  ---------------------------------------------------
  alpha Z        PSCENC =       628.81100141
  Ewald energy   TEWEN  =     75235.53624182
  -Hartree energ DENC   =   -105944.56707027
  -exchange      EXHF   =         0.00000000
  -V(xc)+E(xc)   XCENC  =     -1054.06621496
  PAW double counting   =     34231.74274994   -32063.84158210
  entropy T*S    EENTRO =        -0.07662255
  eigenvalues    EBANDS =      -672.93330364
  atomic energy  EATOM  =     29452.55580095
  Solvation  Ediel_sol  =         0.00000000
  ---------------------------------------------------
  free energy    TOTEN  =      -186.83899939 eV

  energy without entropy =     -186.76237684  energy(sigma->0) =     -186.81345854


--------------------------------------------------------------------------------------------------------




--------------------------------------- Iteration      1(  14)  ---------------------------------------


    POTLOK:  cpu time      0.0348: real time      0.0349
    SETDIJ:  cpu time      0.0088: real time      0.0088
    EDDIAG:  cpu time      0.1474: real time      0.1481
  RMM-DIIS:  cpu time      0.5425: real time      0.5453
    ORTHCH:  cpu time      0.0226: real time      0.0227
       DOS:  cpu time      0.0005: real time      0.0005
    CHARGE:  cpu time      0.0426: real time      0.0427
    MIXING:  cpu time      0.0010: real time      0.0010
    --------------------------------------------
      LOOP:  cpu time      0.8002: real time      0.8042

 eigenvalue-minimisations  :   933
 total energy-change (2. order) : 0.3004588E-01  (-0.6345461E-02)
 number of electron     367.9999992 magnetization 
 augmentation part      151.1428474 magnetization 

 DIPCOR: dipole corrections for dipol
 direction  3 min pos   194,
 dipolmoment           0.000000      0.000000     -0.011551 electrons x Angstroem
 Tr[quadrupol]     -4533.366641

 energy correction for charged system         0.000000 eV
 dipol+quadrupol energy correction           -0.000009 eV
 added-field ion interaction         -0.390634 eV  (added to PSCEN)


 Broyden mixing:
  rms(total) = 0.22283E+00    rms(broyden)= 0.22276E+00
  rms(prec ) = 0.25146E+00
  weight for this iteration     100.00

 eigenvalues of (default mixing * dielectric matrix)
  average eigenvalue GAMMA=   0.6038
  2.2278  0.9738  0.6269  0.6269  0.1047  0.2342  0.2342  0.1861  0.2195

 Free energy of the ion-electron system (eV)
  ---------------------------------------------------
  alpha Z        PSCENC =       628.36200639
  Ewald energy   TEWEN  =     75235.53624182
  -Hartree energ DENC   =   -105955.04010703
  -exchange      EXHF   =         0.00000000
  -V(xc)+E(xc)   XCENC  =     -1053.97777686
  PAW double counting   =     34223.96726356   -32055.35729290
  entropy T*S    EENTRO =        -0.07800127
  eigenvalues    EBANDS =      -662.77708819
  atomic energy  EATOM  =     29452.55580095
  Solvation  Ediel_sol  =         0.00000000
  ---------------------------------------------------
  free energy    TOTEN  =      -186.80895351 eV

  energy without entropy =     -186.73095225  energy(sigma->0) =     -186.78295309


--------------------------------------------------------------------------------------------------------




--------------------------------------- Iteration      1(  15)  ---------------------------------------


    POTLOK:  cpu time      0.0347: real time      0.0348
    SETDIJ:  cpu time      0.0091: real time      0.0091
    EDDIAG:  cpu time      0.1474: real time      0.1481
  RMM-DIIS:  cpu time      0.5341: real time      0.5369
    ORTHCH:  cpu time      0.0226: real time      0.0227
       DOS:  cpu time      0.0006: real time      0.0006
    CHARGE:  cpu time      0.0428: real time      0.0430
    MIXING:  cpu time      0.0010: real time      0.0010
    --------------------------------------------
      LOOP:  cpu time      0.7922: real time      0.7962

 eigenvalue-minimisations  :   931
 total energy-change (2. order) : 0.2795893E-02  (-0.4303746E-02)
 number of electron     367.9999992 magnetization 
 augmentation part      151.1616921 magnetization 

 DIPCOR: dipole corrections for dipol
 direction  3 min pos   193,
 dipolmoment           0.000000      0.000000     -0.003353 electrons x Angstroem
 Tr[quadrupol]     -4533.425689

 energy correction for charged system         0.000000 eV
 dipol+quadrupol energy correction           -0.000001 eV
 added-field ion interaction         -0.101986 eV  (added to PSCEN)


 Broyden mixing:
  rms(total) = 0.19857E+00    rms(broyden)= 0.19851E+00
  rms(prec ) = 0.22967E+00
  weight for this iteration     100.00

 eigenvalues of (default mixing * dielectric matrix)
  average eigenvalue GAMMA=   0.6666
  2.1776  1.2045  1.2045  0.8390  0.1047  0.2886  0.2292  0.2292  0.2219  0.1671

 Free energy of the ion-electron system (eV)
  ---------------------------------------------------
  alpha Z        PSCENC =       628.65066261
  Ewald energy   TEWEN  =     75235.53624182
  -Hartree energ DENC   =   -105957.42494030
  -exchange      EXHF   =         0.00000000
  -V(xc)+E(xc)   XCENC  =     -1053.91522172
  PAW double counting   =     34212.56884300   -32043.41848610
  entropy T*S    EENTRO =        -0.08063931
  eigenvalues    EBANDS =      -661.27841859
  atomic energy  EATOM  =     29452.55580095
  Solvation  Ediel_sol  =         0.00000000
  ---------------------------------------------------
  free energy    TOTEN  =      -186.80615762 eV

  energy without entropy =     -186.72551831  energy(sigma->0) =     -186.77927785


--------------------------------------------------------------------------------------------------------




--------------------------------------- Iteration      1(  16)  ---------------------------------------


    POTLOK:  cpu time      0.0348: real time      0.0350
    SETDIJ:  cpu time      0.0087: real time      0.0088
    EDDIAG:  cpu time      0.1470: real time      0.1476
  RMM-DIIS:  cpu time      0.5428: real time      0.5457
    ORTHCH:  cpu time      0.0225: real time      0.0226
       DOS:  cpu time      0.0006: real time      0.0006
    CHARGE:  cpu time      0.0426: real time      0.0428
    MIXING:  cpu time      0.0010: real time      0.0010
    --------------------------------------------
      LOOP:  cpu time      0.8001: real time      0.8040

 eigenvalue-minimisations  :   945
 total energy-change (2. order) : 0.3728237E-02  (-0.4580200E-02)
 number of electron     367.9999992 magnetization 
 augmentation part      151.1311350 magnetization 

 DIPCOR: dipole corrections for dipol
 direction  3 min pos   192,
 dipolmoment           0.000000      0.000000      0.013596 electrons x Angstroem
 Tr[quadrupol]     -4533.842362

 energy correction for charged system         0.000000 eV
 dipol+quadrupol energy correction           -0.000012 eV
 added-field ion interaction          0.367205 eV  (added to PSCEN)


 Broyden mixing:
  rms(total) = 0.18692E+00    rms(broyden)= 0.18687E+00
  rms(prec ) = 0.22734E+00
  weight for this iteration     100.00

 eigenvalues of (default mixing * dielectric matrix)
  average eigenvalue GAMMA=   0.6789
  2.1604  1.4719  1.4719  0.8390  0.3484  0.1047  0.2690  0.2208  0.2208  0.1929
  0.1687

 Free energy of the ion-electron system (eV)
  ---------------------------------------------------
  alpha Z        PSCENC =       629.11984238
  Ewald energy   TEWEN  =     75235.53624182
  -Hartree energ DENC   =   -105968.88942418
  -exchange      EXHF   =         0.00000000
  -V(xc)+E(xc)   XCENC  =     -1053.80611176
  PAW double counting   =     34216.36613992   -32046.44644632
  entropy T*S    EENTRO =        -0.07913711
  eigenvalues    EBANDS =      -651.15933509
  atomic energy  EATOM  =     29452.55580095
  Solvation  Ediel_sol  =         0.00000000
  ---------------------------------------------------
  free energy    TOTEN  =      -186.80242938 eV

  energy without entropy =     -186.72329227  energy(sigma->0) =     -186.77605035


--------------------------------------------------------------------------------------------------------




--------------------------------------- Iteration      1(  17)  ---------------------------------------


    POTLOK:  cpu time      0.0348: real time      0.0349
    SETDIJ:  cpu time      0.0090: real time      0.0090
    EDDIAG:  cpu time      0.1471: real time      0.1478
  RMM-DIIS:  cpu time      0.5467: real time      0.5496
    ORTHCH:  cpu time      0.0225: real time      0.0226
       DOS:  cpu time      0.0006: real time      0.0006
    CHARGE:  cpu time      0.0427: real time      0.0428
    MIXING:  cpu time      0.0010: real time      0.0010
    --------------------------------------------
      LOOP:  cpu time      0.8044: real time      0.8084

 eigenvalue-minimisations  :   946
 total energy-change (2. order) : 0.1615867E-01  (-0.3393468E-02)
 number of electron     367.9999992 magnetization 
 augmentation part      151.1096818 magnetization 

 DIPCOR: dipole corrections for dipol
 direction  3 min pos   191,
 dipolmoment           0.000000      0.000000      0.024662 electrons x Angstroem
 Tr[quadrupol]     -4534.149214

 energy correction for charged system         0.000000 eV
 dipol+quadrupol energy correction           -0.000040 eV
 added-field ion interaction          0.582107 eV  (added to PSCEN)


 Broyden mixing:
  rms(total) = 0.12071E+00    rms(broyden)= 0.12064E+00
  rms(prec ) = 0.15518E+00
[...]
    142      -0.3229      2.00000
    143      -0.2830      2.00000
    144      -0.2647      2.00000
    145      -0.2560      2.00000
    146      -0.2295      2.00000
    147      -0.2139      2.00000
    148      -0.1976      2.00000
    149      -0.1822      2.00000
    150      -0.1379      2.00000
    151      -0.1294      2.00000
    152      -0.0761      2.00000
    153      -0.0514      2.00000
    154      -0.0297      2.00000
    155       0.0006      2.00000
    156       0.0408      2.00000
    157       0.0657      2.00000
    158       0.0873      2.00000
    159       0.1023      2.00000
    160       0.1268      2.00000
    161       0.1350      2.00000
    162       0.1585      2.00000
    163       0.1742      2.00000
    164       0.1856      2.00000
    165       0.2091      2.00000
    166       0.2576      2.00001
    167       0.2826      2.00003
    168       0.3026      2.00010
    169       0.3150      2.00021
    170       0.3427      2.00089
    171       0.3597      2.00199
    172       0.3695      2.00307
    173       0.3780      2.00439
    174       0.3996      2.01008
    175       0.4111      2.01496
    176       0.4297      2.02631
    177       0.4476      2.04110
    178       0.4681      2.05966
    179       0.5083      2.05885
    180       0.5258      2.01308
    181       0.5350      1.97033
    182       0.5847      1.46070
    183       0.5961      1.28325
    184       0.6104      1.04594
    185       0.6209      0.86891
    186       0.6247      0.80559
    187       0.6450      0.48988
    188       0.6835      0.07742
    189       0.7153     -0.05447
    190       0.7625     -0.05588
    191       0.8864     -0.00077
    192       0.9606     -0.00001
    193       1.2733     -0.00000
    194       1.4703     -0.00000
    195       1.4801     -0.00000
    196       1.5220     -0.00000
    197       1.7104     -0.00000
    198       1.7472     -0.00000
    199       2.0032     -0.00000
    200       2.0423     -0.00000
    201       2.1748     -0.00000
    202       2.3711     -0.00000
    203       2.9560      0.00000
    204       3.1879      0.00000
    205       3.2663      0.00000
    206       3.3696      0.00000
    207       3.5301      0.00000
    208       3.5880      0.00000
    209       3.7678      0.00000
    210       4.1290      0.00000
    211       4.3045      0.00000
    212       4.6016      0.00000
    213       4.7094      0.00000
    214       4.8676      0.00000
    215       5.1334      0.00000
    216       5.2626      0.00000
    217       5.5427      0.00000
    218       5.5755      0.00000
    219       5.8158      0.00000
    220       5.9310      0.00000


--------------------------------------------------------------------------------------------------------


 soft charge-density along one line, spin component           1
         0         1         2         3         4         5         6         7         8         9
 total charge-density along one line

 pseudopotential strength for first ion, spin component:           1
 -6.305   0.001  -0.001  -0.003   0.000  -6.372   0.001  -0.001
  0.001  -6.252  -0.002  -0.001   0.001   0.001  -6.321  -0.001
 -0.001  -0.002  -6.213   0.000  -0.000  -0.001  -0.001  -6.284
 -0.003  -0.001   0.000  -6.252   0.000  -0.003  -0.001   0.000
  0.000   0.001  -0.000   0.000  -6.361   0.000   0.001  -0.000
 -6.372   0.001  -0.001  -0.003   0.000  -6.412   0.001  -0.001
  0.001  -6.321  -0.001  -0.001   0.001   0.001  -6.363  -0.001
 -0.001  -0.001  -6.284   0.000  -0.000  -0.001  -0.001  -6.328
 -0.003  -0.001   0.000  -6.321   0.000  -0.003  -0.001   0.000
  0.000   0.001  -0.000   0.000  -6.426   0.000   0.001  -0.000
 -0.000   0.001  -0.025  -0.000  -0.000  -0.000   0.001  -0.024
 -0.000   0.002  -0.042  -0.000  -0.000  -0.000   0.002  -0.041
  0.000  -0.017  -0.000   0.000  -0.000   0.000  -0.016  -0.000
  0.000   0.000  -0.020  -0.000   0.000   0.000   0.000  -0.019
  0.000   0.000  -0.000  -0.017   0.000   0.000   0.000  -0.000
  0.000  -0.018  -0.000   0.000  -0.000   0.000  -0.017  -0.000
  0.000   0.000  -0.022   0.000  -0.000   0.000   0.000  -0.021
  0.000   0.000  -0.000  -0.018   0.000   0.000   0.000  -0.000
 total augmentation occupancy for first ion, spin component:           1
  2.771   0.017  -0.013  -0.028   0.006  -1.149  -0.010   0.007   0.015  -0.003  -0.002   0.000   0.002   0.001   0.002  -0.000
  0.017   2.430  -0.014  -0.017  -0.014  -0.011  -0.966   0.009   0.010   0.007  -0.028   0.008  -0.219   0.005   0.003  -0.007
 -0.013  -0.014   2.711  -0.004  -0.004   0.007   0.009  -1.068   0.002   0.002   0.641  -0.166  -0.001  -0.116   0.000   0.000
 -0.028  -0.017  -0.004   2.428  -0.006   0.016   0.010   0.002  -0.965   0.003  -0.014   0.001   0.000   0.003  -0.218   0.000
  0.006  -0.014  -0.004  -0.006   1.617  -0.003   0.006   0.002   0.003  -0.726  -0.003   0.000  -0.002   0.001   0.000   0.000
 -1.149  -0.011   0.007   0.016  -0.003   1.382   0.007  -0.004  -0.008   0.002   0.001  -0.000  -0.001  -0.000  -0.001   0.000
 -0.010  -0.966   0.009   0.010   0.006   0.007   1.325  -0.006  -0.006  -0.004   0.010  -0.000   0.255  -0.003  -0.001  -0.021
  0.007   0.009  -1.068   0.002   0.002  -0.004  -0.006   1.314  -0.001  -0.001  -0.391   0.038   0.000   0.186   0.000  -0.000
  0.015   0.010   0.002  -0.965   0.003  -0.008  -0.006  -0.001   1.325  -0.001   0.008  -0.000  -0.000  -0.002   0.255  -0.000
 -0.003   0.007   0.002   0.003  -0.726   0.002  -0.004  -0.001  -0.001   1.482   0.002  -0.000   0.001  -0.001  -0.000  -0.000
 -0.002  -0.028   0.641  -0.014  -0.003   0.001   0.010  -0.391   0.008   0.002   1.788  -0.270   0.000   0.212   0.001   0.000
  0.000   0.008  -0.166   0.001   0.000  -0.000  -0.000   0.038  -0.000  -0.000  -0.270   0.048   0.000  -0.041  -0.000  -0.000
  0.002  -0.219  -0.001   0.000  -0.002  -0.001   0.255   0.000  -0.000   0.001   0.000   0.000   0.167   0.000  -0.000  -0.010
  0.001   0.005  -0.116   0.003   0.001  -0.000  -0.003   0.186  -0.002  -0.001   0.212  -0.041   0.000   0.110  -0.000  -0.000
  0.002   0.003   0.000  -0.218   0.000  -0.001  -0.001   0.000   0.255  -0.000   0.001  -0.000  -0.000  -0.000   0.167  -0.000
 -0.000  -0.007   0.000   0.000   0.000   0.000  -0.021  -0.000  -0.000  -0.000   0.000  -0.000  -0.010  -0.000  -0.000   0.001
  0.000  -0.000  -0.023  -0.000   0.000  -0.000  -0.000  -0.013  -0.000  -0.000  -0.027   0.006  -0.000  -0.009  -0.000   0.000
 -0.000   0.000   0.000  -0.007  -0.000  -0.000  -0.000   0.000  -0.021  -0.000  -0.000   0.000   0.000  -0.000  -0.010  -0.000


------------------------ aborting loop because EDIFF is reached ----------------------------------------


    CHARGE:  cpu time      0.0426: real time      0.0428
    FORLOC:  cpu time      0.0054: real time      0.0055
    FORNL :  cpu time      0.1921: real time      0.1930
    STRESS:  cpu time      0.5695: real time      0.5720
    FORCOR:  cpu time      0.0388: real time      0.0389
    FORHAR:  cpu time      0.0114: real time      0.0115
    MIXING:  cpu time      0.0012: real time      0.0012
    OFIELD:  cpu time      0.0000: real time      0.0000

  FORCE on cell =-STRESS in cart. coord.  units (eV):
  Direction    XX          YY          ZZ          XY          YZ          ZX
  --------------------------------------------------------------------------------------
  Alpha Z   628.75265   628.75265   628.75265
  Ewald   94941.34122 94871.91588************    24.64165    69.07608    36.68870
  Hartree102854.04480102807.22878-99627.83063     1.56212    20.99056     9.10704
  E(xc)   -1906.94215 -1907.23589 -1915.29817     0.08762     0.28550     0.18409
  Local  ************************207889.59460   -19.60800   -81.54173   -39.61655
  n-local  -126.07252  -127.95845  -132.33811     1.58620     5.17941     3.20631
  augment  2645.21272  2647.19311  2677.65729     0.17560    -3.98084    -2.54875
  Kinetic  4984.26258  4988.81706  5051.84581    -7.97470    -7.31785    -6.18060
  Fock        0.00000     0.00000     0.00000     0.00000     0.00000     0.00000
  -------------------------------------------------------------------------------------
  Total     -22.75574   -23.31316    -5.45373     0.47049     2.69111     0.84025
  in kB     -26.21352   -26.85565    -6.28243     0.54198     3.10003     0.96793
  external pressure =      -19.78 kB  Pullay stress =        0.00 kB


 VOLUME and BASIS-vectors are now :
 -----------------------------------------------------------------------------
  energy-cutoff  :      400.00
  volume of cell :     1390.84
      direct lattice vectors                 reciprocal lattice vectors
     8.358002154  0.000000000  0.000000000     0.119645817  0.000000000  0.000000000
     0.000000000  8.358002154  0.000000000     0.000000000  0.119645817  0.000000000
     0.000000000  0.000000000 19.910000000     0.000000000  0.000000000  0.050226017

  length of vectors
     8.358002154  8.358002154 19.910000000     0.119645817  0.119645817  0.050226017


 FORCES acting on ions
    electron-ion (+dipol)            ewald-force                    non-local-force                 convergence-correction
 -----------------------------------------------------------------------------------------------
   -.451E+00 0.224E+00 0.209E+04   0.539E+00 -.229E-01 -.209E+04   -.405E-01 -.488E-01 -.304E+01   -.545E-01 -.141E+00 -.183E+00
   0.218E+00 0.124E+00 0.209E+04   -.273E+00 0.128E+00 -.209E+04   0.494E-01 -.366E-01 -.307E+01   0.896E-02 -.212E+00 -.213E+00
   0.292E+00 0.713E-01 0.209E+04   -.285E+00 0.128E+00 -.209E+04   -.586E-01 -.188E-02 -.312E+01   0.455E-01 -.167E+00 -.203E+00
   -.309E+00 -.178E+00 0.209E+04   0.460E+00 0.136E+00 -.209E+04   -.280E-01 0.341E-01 -.308E+01   -.129E+00 0.137E-02 -.257E+00
   -.777E-02 -.138E+00 0.209E+04   -.641E-02 0.151E+00 -.209E+04   -.154E-02 0.815E-02 -.305E+01   0.824E-02 -.272E-02 -.329E+00
   0.298E+00 -.180E+00 0.209E+04   -.461E+00 0.163E+00 -.209E+04   0.394E-01 -.164E-01 -.305E+01   0.120E+00 0.279E-01 -.278E+00
   -.342E+00 -.619E-01 0.209E+04   0.467E+00 -.365E-01 -.209E+04   -.217E-01 -.644E-01 -.313E+01   -.866E-01 0.139E+00 -.150E+00
   0.112E+00 -.512E-01 0.209E+04   -.179E+00 -.204E+00 -.209E+04   0.240E-01 0.326E-01 -.308E+01   0.370E-01 0.215E+00 -.178E+00
   0.197E+00 0.101E+00 0.209E+04   -.304E+00 -.254E+00 -.209E+04   0.385E-01 0.113E-01 -.317E+01   0.492E-01 0.140E+00 -.143E+00
   -.314E+01 0.352E+01 0.747E+03   0.304E+01 -.352E+01 -.747E+03   0.119E+00 -.646E-01 -.192E-01   0.271E-01 -.345E-01 -.108E+00
   -.117E+01 0.286E+01 0.743E+03   0.114E+01 -.294E+01 -.743E+03   0.383E-01 -.365E-01 0.986E-01   -.298E-01 -.884E-02 -.759E-02
   0.306E+01 0.402E+01 0.746E+03   -.299E+01 -.394E+01 -.746E+03   -.861E-01 -.142E+00 -.601E-01   0.208E-02 -.174E-01 -.996E-01
   -.201E+01 -.185E+01 0.748E+03   0.195E+01 0.196E+01 -.748E+03   0.797E-01 0.151E-01 -.776E-01   0.315E-01 -.136E+00 -.883E-01
   -.198E+01 -.253E+00 0.746E+03   0.209E+01 0.471E+00 -.746E+03   0.949E-02 -.207E-01 -.424E-01   -.945E-01 -.224E+00 0.108E-01
   0.315E+01 -.347E+01 0.744E+03   -.323E+01 0.367E+01 -.744E+03   -.230E-01 0.552E-01 -.110E+00   0.630E-01 -.218E+00 -.265E-01
   -.172E+01 0.177E+01 0.748E+03   0.173E+01 -.186E+01 -.748E+03   0.259E-01 -.123E+00 -.564E-01   0.260E-01 0.170E+00 -.661E-01
   -.229E+01 0.250E+01 0.748E+03   0.235E+01 -.260E+01 -.748E+03   0.725E-01 -.241E+00 -.109E+00   -.112E+00 0.234E+00 0.597E-01
   0.328E+01 0.294E+01 0.745E+03   -.335E+01 -.314E+01 -.745E+03   -.693E-01 -.110E+00 0.194E-01   0.862E-01 0.236E+00 -.274E-01
   0.359E+01 0.107E+02 -.632E+03   -.343E+01 -.103E+02 0.632E+03   -.224E+00 -.312E+00 -.195E+00   0.776E-01 -.134E+00 0.859E-01
   -.420E+01 0.343E+00 -.637E+03   0.425E+01 -.931E-02 0.636E+03   -.397E-01 -.103E+00 0.258E+00   -.521E-01 -.147E+00 0.184E+00
   0.511E+01 -.610E+00 -.645E+03   -.511E+01 0.682E+00 0.645E+03   -.759E-01 0.107E+00 0.309E+00   -.232E-01 -.128E+00 0.674E-01
   0.636E+01 -.368E+01 -.646E+03   -.639E+01 0.348E+01 0.646E+03   -.147E+00 0.363E-01 0.106E+00   0.375E-01 0.945E-01 0.274E+00
   -.117E+02 0.426E+01 -.655E+03   0.118E+02 -.435E+01 0.654E+03   0.137E+00 -.774E-01 0.285E+00   -.451E-01 0.679E-01 0.430E+00
   0.778E+01 0.322E+01 -.638E+03   -.778E+01 -.324E+01 0.637E+03   -.130E+00 -.134E+00 0.287E+00   0.114E-01 0.872E-01 0.247E+00
   0.192E+00 -.665E+01 -.654E+03   -.124E+00 0.651E+01 0.654E+03   -.165E+00 0.173E+00 -.137E+00   0.520E-01 0.465E-01 0.144E+00
   -.198E+00 -.546E+01 -.658E+03   0.186E+00 0.530E+01 0.658E+03   0.111E+00 0.169E+00 -.215E+00   -.594E-01 0.764E-01 0.252E+00
   0.614E+00 -.327E+01 -.638E+03   -.629E+00 0.322E+01 0.637E+03   0.179E-01 0.138E-01 -.138E-02   0.567E-02 0.410E-01 0.137E+00
   0.285E+01 0.778E+01 -.202E+04   -.288E+01 -.791E+01 0.202E+04   0.170E-01 0.277E+00 0.319E+01   0.294E-01 -.118E+00 0.152E+00
   -.118E+01 0.141E+02 -.200E+04   0.983E+00 -.144E+02 0.199E+04   0.119E+00 0.420E+00 0.327E+01   0.573E-01 -.846E-01 0.105E+00
   -.221E+01 0.155E+02 -.201E+04   0.239E+01 -.156E+02 0.200E+04   -.112E+00 0.199E+00 0.321E+01   -.907E-01 -.104E+00 0.198E+00
   -.714E+01 0.131E+02 -.200E+04   0.582E+01 -.132E+02 0.200E+04   0.116E+01 0.999E-01 0.239E+01   0.588E-01 0.517E-01 0.192E+00
   0.134E+02 0.529E+02 -.184E+04   -.130E+02 -.524E+02 0.184E+04   -.302E+00 -.680E+00 -.700E+00   0.762E-01 0.515E-01 0.176E+00
   0.947E+01 0.239E+02 -.198E+04   -.556E+01 -.235E+02 0.198E+04   -.394E+01 -.363E+00 -.134E+01   -.131E+00 0.534E-01 0.211E+00
   0.131E+02 -.233E+02 -.200E+04   -.133E+02 0.236E+02 0.200E+04   0.500E-01 -.199E+00 0.321E+01   0.419E-01 0.656E-01 0.229E+00
   0.939E+01 -.707E+02 -.202E+04   -.960E+01 0.710E+02 0.202E+04   0.128E+00 -.271E+00 0.304E+01   0.596E-01 0.227E-01 0.189E+00
   -.182E+02 -.341E+02 -.198E+04   0.184E+02 0.343E+02 0.198E+04   -.106E+00 -.215E+00 0.312E+01   -.978E-01 0.553E-01 0.282E+00
   -.159E+02 -.317E+01 -.263E+03   0.170E+02 0.332E+01 0.264E+03   -.903E+00 -.250E+00 -.172E+01   -.766E-02 0.857E-02 0.391E-01
   -.302E+02 -.270E+02 -.228E+03   0.335E+02 0.297E+02 0.228E+03   -.315E+01 -.276E+01 -.181E+00   0.222E-02 0.130E-01 0.181E-01
   0.258E+02 0.216E+02 -.139E+04   -.293E+02 -.244E+02 0.139E+04   0.333E+01 0.325E+01 -.619E+01   0.826E-02 0.351E-01 0.870E-01
 -----------------------------------------------------------------------------------------------
   0.407E+01 0.132E+01 0.147E+02   -.213E-13 0.178E-12 -.296E-11   -.407E+01 -.137E+01 -.162E+02   0.109E-01 0.555E-01 0.141E+01


 POSITION                                       TOTAL-FORCE (eV/Angst)
 -----------------------------------------------------------------------------------
      1.39300      1.39300      0.00000        -0.006929      0.011246      0.119658
      4.17900      1.39300      0.00000         0.003097      0.003521      0.126656
      6.96500      1.39300      0.00000        -0.005995      0.030264      0.078083
      1.39300      4.17900      0.00000        -0.005131     -0.006055      0.111539
      4.17900      4.17900      0.00000        -0.007760      0.018167      0.101365
      6.96500      4.17900      0.00000        -0.003916     -0.005409      0.109079
      1.39300      6.96500      0.00000         0.016433     -0.023619      0.100282
      4.17900      6.96500      0.00000        -0.007006     -0.007740      0.111144
      6.96500      6.96500      0.00000        -0.019652     -0.001701      0.070989
      0.00000      0.00000      1.97000         0.039222     -0.090486     -0.205373
      2.78600      0.00000      1.97000        -0.020985     -0.128628     -0.015092
      5.57200      0.00000      1.97000        -0.013801     -0.078541     -0.114417
      0.00000      2.78600      1.97000         0.048462     -0.006675     -0.067345
      2.78600      2.78600      1.97000         0.030582     -0.027139      0.011851
      5.57200      2.78600      1.97000        -0.040374      0.041176     -0.078352
      0.00000      5.57200      1.97000         0.062840     -0.041553     -0.063094
      2.78600      5.57200      1.97000         0.019488     -0.113579     -0.177873
      5.57200      5.57200      1.97000        -0.054386     -0.075299     -0.014220
      1.38061      1.36037      3.91981         0.011381     -0.013997      0.030958
      4.20895      1.36080      3.91433        -0.042277      0.084354      0.207623
      6.97325      1.38611      3.92096        -0.094178      0.051343      0.107248
      1.40562      4.15947      3.95384        -0.142199     -0.064384     -0.065740
      4.16482      4.15794      3.96337         0.190910     -0.103943      0.000392
      6.97131      4.16003      3.92376        -0.114280     -0.071770      0.056155
      1.41642      6.90583      3.93884        -0.045116      0.076099      0.003654
      4.17095      6.90844      3.94720         0.038728      0.083913     -0.026632
      6.97359      6.95618      3.91067         0.008958      0.008112     -0.002521
      0.01007      8.30871      5.88895         0.013067      0.027740     -0.054842
      2.79561      8.25494      5.86909        -0.017530      0.042845      0.020484
      5.59577      8.33603      5.87565        -0.018217     -0.070373     -0.011934
      8.29978      2.75533      5.94045        -0.110414      0.029995      0.163217
      2.71761      2.65720      5.84840         0.134031     -0.118275      0.089231
      5.60090      2.75557      6.04654        -0.167405      0.057082     -0.006979
      0.00318      5.54838      5.87584        -0.032310      0.070018      0.031315
      2.78025      5.46294      6.05547        -0.015057      0.014575     -0.016573
      5.59144      5.55423      5.86621         0.003372      0.006128      0.058980
      6.60823      2.94635      7.31885         0.262584     -0.091302     -0.692300
      4.08563      4.19102      8.00133         0.168876     -0.029960     -0.065039
      3.06129      3.29214      7.95778        -0.067111      0.513852     -0.031574
 -----------------------------------------------------------------------------------
    total drift:                                0.011177      0.006108     -0.007949


--------------------------------------------------------------------------------------------------------



  FREE ENERGIE OF THE ION-ELECTRON SYSTEM (eV)
  ---------------------------------------------------
  free  energy   TOTEN  =      -186.76994710 eV

  energy  without entropy=     -186.69129298  energy(sigma->0) =     -186.74372906



--------------------------------------------------------------------------------------------------------


    POTLOK:  cpu time      0.0437: real time      0.0438


--------------------------------------------------------------------------------------------------------


     LOOP+:  cpu time     20.2541: real time     20.3656
 vacuum level on the upper side and lower side of the slab         5.409         5.300
    4ORBIT:  cpu time      0.0000: real time      0.0000

 total amount of memory used by VASP MPI-rank0    49481. kBytes
=======================================================================

   base      :      30000. kBytes
   nonlr-proj:       4923. kBytes
   fftplans  :       3716. kBytes
   grid      :       6996. kBytes
   one-center:         31. kBytes
   wavefun   :       3815. kBytes

  
  
 General timing and accounting informations for this job:
 ========================================================
  
                  Total CPU time used (sec):       21.458
                            User time (sec):       20.489
                          System time (sec):        0.970
                         Elapsed time (sec):       22.393
  
                   Maximum memory used (kb):      334360.
                   Average memory used (kb):          N/A
  
                          Minor page faults:        82098
                          Major page faults:           54
                 Voluntary context switches:         1876
