<?xml version="1.0" encoding="ISO-8859-1"?>
<modeling>
 <generator>
  <i name="program" type="string">vasp </i>
  <i name="version" type="string">6.4.3  </i>
  <i name="subversion" type="string">19Mar24 (build Oct  2 2024 09:01:45) complex                          parallel </i>
  <i name="platform" type="string">LinuxGNU </i>
  <i name="date" type="string">2025 02 24 </i>
  <i name="time" type="string">13:04:26 </i>
 </generator>
 <incar>
  <i type="string" name="PREC">Accurate</i>
  <i type="string" name="ALGO">Fast</i>
  <i type="int" name="ICHARG">     2</i>
  <i type="int" name="IBRION">    -1</i>
  <i name="EDIFF">      0.00010000</i>
  <i name="EDIFFG">     -0.03000000</i>
  <i type="int" name="ISYM">     0</i>
  <i name="ENCUT">    400.00000000</i>
  <i type="string" name="LREAL">Auto</i>
  <i type="int" name="ISMEAR">     1</i>
  <i name="SIGMA">      0.10000000</i>
  <i type="logical" name="LWAVE"> F  </i>
  <i type="logical" name="LCHARG"> F  </i>
  <i type="string" name="GGA">PE</i>
  <i type="logical" name="LDIPOL"> T  </i>
  <i type="int" name="IDIPOL">     3</i>
 </incar>
 <primitive_cell>
  <structure name="primitive_cell" >
   <crystal>
    <varray name="basis" >
     <v>       8.35800215       0.00000000       0.00000000 </v>
     <v>       0.00000000       8.35800215       0.00000000 </v>
     <v>       0.00000000       0.00000000      19.91000000 </v>
    </varray>
    <i name="volume">   1390.83694200 </i>
    <varray name="rec_basis" >
     <v>       0.11964582       0.00000000       0.00000000 </v>
     <v>       0.00000000       0.11964582       0.00000000 </v>
     <v>       0.00000000       0.00000000       0.05022602 </v>
    </varray>
   </crystal>
   <varray name="positions" >
    <v>       0.16666667       0.16666667       0.00000000 </v>
    <v>       0.50000000       0.16666667       0.00000000 </v>
    <v>       0.83333333       0.16666667       0.00000000 </v>
    <v>       0.16666667       0.50000000       0.00000000 </v>
    <v>       0.50000000       0.50000000       0.00000000 </v>
    <v>       0.83333333       0.50000000       0.00000000 </v>
    <v>       0.16666667       0.83333333       0.00000000 </v>
    <v>       0.50000000       0.83333333       0.00000000 </v>
    <v>       0.83333333       0.83333333       0.00000000 </v>
    <v>       0.00000000       0.00000000       0.09894525 </v>
    <v>       0.33333333       0.00000000       0.09894525 </v>
    <v>       0.66666667       0.00000000       0.09894525 </v>
    <v>       0.00000000       0.33333333       0.09894525 </v>
    <v>       0.33333333       0.33333333       0.09894525 </v>
    <v>       0.66666667       0.33333333       0.09894525 </v>
    <v>       0.00000000       0.66666667       0.09894525 </v>
    <v>       0.33333333       0.66666667       0.09894525 </v>
    <v>       0.66666667       0.66666667       0.09894525 </v>
    <v>       0.16518371       0.16276285       0.19687655 </v>
    <v>       0.50358314       0.16281422       0.19660110 </v>
    <v>       0.83432008       0.16584211       0.19693441 </v>
    <v>       0.16817681       0.49766323       0.19858583 </v>
    <v>       0.49830272       0.49747968       0.19906451 </v>
    <v>       0.83408803       0.49773039       0.19707463 </v>
    <v>       0.16946845       0.82625387       0.19783242 </v>
    <v>       0.49903643       0.82656610       0.19825194 </v>
    <v>       0.83436056       0.83227757       0.19641753 </v>
    <v>       0.00120443       0.99410227       0.29577847 </v>
    <v>       0.33448290       0.98766908       0.29478097 </v>
    <v>       0.66951059       0.99737095       0.29511036 </v>
    <v>       0.99303448       0.32966320       0.29836520 </v>
    <v>       0.32515058       0.31792316       0.29374191 </v>
    <v>       0.67012422       0.32969228       0.30369339 </v>
    <v>       0.00038042       0.66384005       0.29511991 </v>
    <v>       0.33264541       0.65361843       0.30414203 </v>
    <v>       0.66899240       0.66454077       0.29463644 </v>
    <v>       0.79064682       0.35251832       0.36759666 </v>
    <v>       0.48882875       0.50143809       0.40187491 </v>
    <v>       0.36627069       0.39389094       0.39968751 </v>
   </varray>
  </structure>
  <varray name="primitive_index" >
   <v type="int" >        1 </v>
   <v type="int" >        2 </v>
   <v type="int" >        3 </v>
   <v type="int" >        4 </v>
   <v type="int" >        5 </v>
   <v type="int" >        6 </v>
   <v type="int" >        7 </v>
   <v type="int" >        8 </v>
   <v type="int" >        9 </v>
   <v type="int" >       10 </v>
   <v type="int" >       11 </v>
   <v type="int" >       12 </v>
   <v type="int" >       13 </v>
   <v type="int" >       14 </v>
   <v type="int" >       15 </v>
   <v type="int" >       16 </v>
   <v type="int" >       17 </v>
   <v type="int" >       18 </v>
   <v type="int" >       19 </v>
   <v type="int" >       20 </v>
   <v type="int" >       21 </v>
   <v type="int" >       22 </v>
   <v type="int" >       23 </v>
   <v type="int" >       24 </v>
   <v type="int" >       25 </v>
   <v type="int" >       26 </v>
   <v type="int" >       27 </v>
   <v type="int" >       28 </v>
   <v type="int" >       29 </v>
   <v type="int" >       30 </v>
   <v type="int" >       31 </v>
   <v type="int" >       32 </v>
   <v type="int" >       33 </v>
   <v type="int" >       34 </v>
   <v type="int" >       35 </v>
   <v type="int" >       36 </v>
   <v type="int" >       37 </v>
   <v type="int" >       38 </v>
   <v type="int" >       39 </v>
  </varray>
 </primitive_cell>
 <kpoints>
  <generation param="Monkhorst-Pack">
   <v type="int" name="divisions">       2        2        1 </v>
   <v name="usershift">      0.00000000       0.00000000       0.00000000 </v>
   <v name="genvec1">      0.50000000       0.00000000       0.00000000 </v>
   <v name="genvec2">      0.00000000       0.50000000       0.00000000 </v>
   <v name="genvec3">      0.00000000       0.00000000       1.00000000 </v>
   <v name="shift">      0.50000000       0.50000000       0.00000000 </v>
  </generation>
  <varray name="kpointlist" >
   <v>       0.25000000       0.25000000       0.00000000 </v>
   <v>      -0.25000000       0.25000000       0.00000000 </v>
  </varray>
  <varray name="weights" >
   <v>       0.50000000 </v>
   <v>       0.50000000 </v>
  </varray>
 </kpoints>
 <parameters>
  <separator name="general" >
   <i type="string" name="SYSTEM">unknown system</i>
   <i type="logical" name="LCOMPAT"> F  </i>
  </separator>
  <separator name="electronic" >
   <i type="string" name="PREC">accura</i>
   <i name="ENMAX">    400.00000000</i>
   <i name="ENAUG">    416.23000000</i>
   <i name="EDIFF">      0.00010000</i>
   <i type="int" name="IALGO">    68</i>
   <i type="int" name="IWAVPR">    10</i>
   <i type="int" name="NBANDS">   220</i>
   <i type="int" name="NBANDSLOW">    -1</i>
   <i type="int" name="NBANDSHIGH">    -1</i>
   <i name="NELECT">    368.00000000</i>
   <i type="int" name="TURBO">     0</i>
   <i type="int" name="IRESTART">     0</i>
   <i type="int" name="NREBOOT">     0</i>
   <i type="int" name="NMIN">     0</i>
   <i name="EREF">      0.00000000</i>
   <separator name="electronic smearing" >
    <i type="int" name="ISMEAR">     1</i>
    <i name="SIGMA">      0.10000000</i>
    <i name="KSPACING">      0.50000000</i>
    <i type="logical" name="KGAMMA"> T  </i>
    <i type="logical" name="KBLOWUP"> T  </i>
   </separator>
   <separator name="electronic projectors" >
    <i type="logical" name="LREAL"> T  </i>
    <v name="ROPT">     -0.00025000     -0.00025000     -0.00025000</v>
    <i type="int" name="LMAXPAW">  -100</i>
    <i type="int" name="LMAXMIX">     2</i>
    <i type="logical" name="NLSPLINE"> F  </i>
   </separator>
   <separator name="electronic startup" >
    <i type="int" name="ISTART">     0</i>
    <i type="int" name="ICHARG">     2</i>
    <i type="int" name="INIWAV">     1</i>
   </separator>
   <separator name="electronic spin" >
    <i type="int" name="ISPIN">     1</i>
    <i type="logical" name="LNONCOLLINEAR"> F  </i>
    <v name="MAGMOM">      1.00000000      1.00000000      1.00000000      1.00000000      1.00000000      1.00000000      1.00000000      1.00000000      1.00000000      1.00000000      1.00000000      1.00000000      1.00000000      1.00000000      1.00000000      1.00000000      1.00000000      1.00000000      1.00000000      1.00000000
      1.00000000      1.00000000      1.00000000      1.00000000      1.00000000      1.00000000      1.00000000      1.00000000      1.00000000      1.00000000      1.00000000      1.00000000      1.00000000      1.00000000      1.00000000      1.00000000      1.00000000      1.00000000      1.00000000</v>
    <i name="NUPDOWN">     -1.00000000</i>
    <i type="logical" name="LSORBIT"> F  </i>
    <v name="SAXIS">      0.00000000      0.00000000      1.00000000</v>
    <i type="logical" name="LSPIRAL"> F  </i>
    <v name="QSPIRAL">      0.00000000      0.00000000      0.00000000</v>
    <i type="logical" name="LZEROZ"> F  </i>
   </separator>
   <separator name="electronic exchange-correlation" >
    <i type="logical" name="LASPH"> F  </i>
   </separator>
   <separator name="electronic convergence" >
    <i type="int" name="NELM">    60</i>
    <i type="int" name="NELMDL">     0</i>
    <i type="int" name="NELMIN">     2</i>
    <i name="ENINI">    400.00000000</i>
    <separator name="electronic convergence detail" >
     <i type="logical" name="LDIAG"> T  </i>
     <i type="logical" name="LSUBROT"> F  </i>
     <i name="WEIMIN">      0.00000000</i>
     <i name="EBREAK">      0.00000011</i>
     <i name="DEPER">      0.30000000</i>
     <i type="int" name="NRMM">     4</i>
     <i name="TIME">      0.40000000</i>
    </separator>
   </separator>
   <separator name="electronic mixer" >
    <i name="AMIX">      0.40000000</i>
    <i name="BMIX">      1.00000000</i>
    <i name="AMIN">      0.10000000</i>
    <i name="AMIX_MAG">      1.60000000</i>
    <i name="BMIX_MAG">      1.00000000</i>
    <separator name="electronic mixer details" >
     <i type="int" name="IMIX">     4</i>
     <i type="logical" name="MIXFIRST"> F  </i>
     <i type="int" name="MAXMIX">   -45</i>
     <i name="WC">    100.00000000</i>
     <i type="int" name="INIMIX">     1</i>
     <i type="int" name="MIXPRE">     1</i>
     <i type="int" name="MREMOVE">     5</i>
    </separator>
   </separator>
   <separator name="electronic dipolcorrection" >
    <i type="logical" name="LDIPOL"> T  </i>
    <i type="logical" name="LMONO"> F  </i>
    <i type="int" name="IDIPOL">     3</i>
    <i name="EPSILON">      1.00000000</i>
    <v name="DIPOL">   -100.00000000   -100.00000000   -100.00000000</v>
    <i name="EFIELD">      0.00000000</i>
    <i type="logical" name="LVACPOTAV"> F  </i>
   </separator>
  </separator>
  <separator name="grids" >
   <i type="int" name="NGX">    56</i>
   <i type="int" name="NGY">    56</i>
   <i type="int" name="NGZ">   140</i>
   <i type="int" name="NGXF">   112</i>
   <i type="int" name="NGYF">   112</i>
   <i type="int" name="NGZF">   280</i>
   <i type="logical" name="ADDGRID"> F  </i>
  </separator>
  <separator name="ionic" >
   <i type="int" name="NSW">     0</i>
   <i type="int" name="IBRION">    -1</i>
   <i type="int" name="MDALGO">     0</i>
   <i type="int" name="ISIF">     2</i>
   <i name="PSTRESS">      0.00000000</i>
   <i name="EDIFFG">     -0.03000000</i>
   <i type="int" name="NFREE">     0</i>
   <i name="POTIM">      0.50000000</i>
   <i name="SMASS">     -3.00000000</i>
   <i name="SCALEE">      1.00000000</i>
  </separator>
  <separator name="ionic md" >
   <i name="TEBEG">      0.00010000</i>
   <i name="TEEND">      0.00010000</i>
   <i type="int" name="NBLOCK">     1</i>
   <i type="int" name="KBLOCK">     1</i>
   <i type="int" name="NPACO">   256</i>
   <i name="APACO">     10.00000000</i>
  </separator>
  <separator name="symmetry" >
   <i type="int" name="ISYM">     0</i>
   <i name="SYMPREC">      0.00001000</i>
  </separator>
  <separator name="dos" >
   <i type="int" name="LORBIT">     0</i>
   <v name="RWIGS">     -1.00000000     -1.00000000     -1.00000000</v>
   <i type="int" name="NEDOS">   301</i>
   <i name="EMIN">     10.00000000</i>
   <i name="EMAX">    -10.00000000</i>
   <i name="EFERMI">      0.00000000</i>
  </separator>
  <separator name="writing" >
   <i type="int" name="NWRITE">     2</i>
   <i type="logical" name="LWAVE"> F  </i>
   <i type="logical" name="LDOWNSAMPLE"> F  </i>
   <i type="logical" name="LCHARG"> F  </i>
   <i type="logical" name="LPARD"> F  </i>
   <i type="logical" name="LVTOT"> F  </i>
   <i type="logical" name="LVHAR"> F  </i>
   <i type="logical" name="LELF"> F  </i>
   <i type="logical" name="LOPTICS"> F  </i>
   <v name="STM">      0.00000000      0.00000000      0.00000000      0.00000000      0.00000000      0.00000000      0.00000000</v>
  </separator>
  <separator name="performance" >
   <i type="int" name="NPAR">     2</i>
   <i type="int" name="NSIM">     4</i>
   <i type="int" name="NBLK">    -1</i>
   <i type="logical" name="LPLANE"> T  </i>
   <i type="logical" name="LSCALAPACK"> T  </i>
   <i type="logical" name="LSCAAWARE"> F  </i>
   <i type="logical" name="LSCALU"> F  </i>
   <i type="logical" name="LASYNC"> F  </i>
   <i type="logical" name="LORBITALREAL"> F  </i>
  </separator>
  <separator name="miscellaneous" >
   <i type="int" name="IDIOT">     3</i>
   <i type="int" name="PHON_NSTRUCT">    -1</i>
   <i type="logical" name="LMUSIC"> F  </i>
   <v name="POMASS">    106.42000000      1.00000000     32.06600000</v>
   <v name="DARWINR">      0.00000000      0.00000000      0.00000000</v>
   <v name="DARWINV">      1.00000000      1.00000000      1.00000000</v>
   <i type="logical" name="LCORR"> T  </i>
  </separator>
  <i type="logical" name="GGA_COMPAT"> T  </i>
  <i type="logical" name="LBERRY"> F  </i>
  <i type="int" name="ICORELEVEL">     0</i>
  <i type="logical" name="LDAU"> F  </i>
  <i type="int" name="I_CONSTRAINED_M">     0</i>
  <separator name="electronic exchange-correlation" >
   <i type="string" name="GGA    ">PE</i>
   <i type="string" name="XC_C">1</i>
   <i type="int" name="VOSKOWN">     0</i>
   <i type="logical" name="LHFCALC"> F  </i>
   <i type="string" name="PRECFOCK"></i>
   <i type="logical" name="LSYMGRAD"> F  </i>
   <i type="logical" name="LHFONE"> F  </i>
   <i type="logical" name="LRHFCALC"> F  </i>
   <i type="logical" name="LTHOMAS"> F  </i>
   <i type="logical" name="LMODELHF"> F  </i>
   <i type="logical" name="LFOCKACE"> F  </i>
   <i name="ENCUT4O">     -1.00000000</i>
   <i type="int" name="EXXOEP">     0</i>
   <i type="int" name="FOURORBIT">     0</i>
   <i name="AEXX">      0.00000000</i>
   <i name="HFALPHA">      0.00000000</i>
   <i name="MCALPHA">      0.00000000</i>
   <i name="ALDAX">      1.00000000</i>
   <i name="AGGAX">      1.00000000</i>
   <i name="AMGGAX">      1.00000000</i>
   <i name="ALDAC">      1.00000000</i>
   <i name="AGGAC">      1.00000000</i>
   <i name="AMGGAC">      1.00000000</i>
   <i type="int" name="NKREDX">     1</i>
   <i type="int" name="NKREDY">     1</i>
   <i type="int" name="NKREDZ">     1</i>
   <i type="logical" name="SHIFTRED"> F  </i>
   <i type="logical" name="ODDONLY"> F  </i>
   <i type="logical" name="EVENONLY"> F  </i>
   <i type="int" name="LMAXFOCK">     0</i>
   <i type="int" name="NMAXFOCKAE">     0</i>
   <i type="logical" name="LFOCKAEDFT"> F  </i>
   <i name="HFSCREEN">      0.00000000</i>
   <i name="HFSCREENC">      0.00000000</i>
   <i type="int" name="NBANDSGWLOW">     0</i>
  </separator>
  <separator name="vdW DFT" >
   <i type="logical" name="LUSE_VDW"> F  </i>
   <i type="int" name="IVDW_NL">    -1</i>
   <i type="logical" name="LSPIN_VDW"> F  </i>
   <i name="ZAB_VDW">     -0.84910000</i>
   <i name="GAMMA_VDW">      1.39626340</i>
   <i name="ALPHA_VDW">      0.00000000</i>
   <i name="PARAM1">      0.12340000</i>
   <i name="PARAM2">      1.00000000</i>
   <i name="BPARAM">      6.30000000</i>
   <i name="CPARAM">      0.00930000</i>
  </separator>
  <separator name="model GW" >
   <i type="int" name="MODEL_GW">     0</i>
   <i name="MODEL_EPS0">     21.39749142</i>
   <i name="MODEL_ALPHA">      1.00000000</i>
  </separator>
  <separator name="linear response parameters" >
   <i type="logical" name="LEPSILON"> F  </i>
   <i type="logical" name="LRPA"> F  </i>
   <i type="logical" name="LNABLA"> F  </i>
   <i type="logical" name="LVEL"> F  </i>
   <i name="CSHIFT">      0.10000000</i>
   <i name="OMEGAMAX">     -1.00000000</i>
   <i name="DEG_THRESHOLD">      0.00200000</i>
   <i name="RTIME">     -0.10000000</i>
   <i name="WPLASMAI">      0.00000000</i>
   <v name="DFIELD">      0.00000000      0.00000000      0.00000000</v>
   <v name="WPLASMA">      0.00000000      0.00000000      0.00000000      0.00000000      0.00000000      0.00000000      0.00000000      0.00000000      0.00000000</v>
  </separator>
  <separator name="orbital magnetization" >
   <i type="logical" name="NUCIND"> F  </i>
   <v name="MAGPOS">      0.00000000      0.00000000      0.00000000</v>
   <i type="logical" name="LNICSALL"> T  </i>
   <i type="logical" name="ORBITALMAG"> F  </i>
   <i type="logical" name="LMAGBLOCH"> F  </i>
   <i type="logical" name="LCHIMAG"> F  </i>
   <i type="logical" name="LGAUGE"> T  </i>
   <i type="int" name="MAGATOM">     0</i>
   <v name="MAGDIPOL">      0.00000000      0.00000000      0.00000000</v>
   <v name="AVECCONST">      0.00000000      0.00000000      0.00000000</v>
  </separator>
  <separator name="response functions" >
   <i type="logical" name="LALL_IN_ONE"> F  </i>
   <i type="int" name="IALL_IN_ONE">    -1</i>
   <i type="int" name="NBANDS_WAVE">    -1</i>
   <i type="logical" name="LFINITE_TEMPERATURE"> F  </i>
   <i type="logical" name="LADDER"> F  </i>
   <i type="logical" name="LRPAFORCE"> F  </i>
   <i type="logical" name="LFXC"> F  </i>
   <i type="logical" name="LHARTREE"> T  </i>
   <i type="int" name="IBSE">     0</i>
   <v type="int" name="KPOINT">    -1     0     0     0</v>
   <i type="logical" name="LTCTC"> F  </i>
   <i type="logical" name="LTCTE"> F  </i>
   <i type="logical" name="LTETE"> F  </i>
   <i type="logical" name="LTRIPLET"> F  </i>
   <i type="logical" name="LFXCEPS"> F  </i>
   <i type="logical" name="LFXHEG"> F  </i>
   <i type="int" name="NATURALO">     2</i>
   <i type="logical" name="LHOLEGF"> F  </i>
   <i type="logical" name="L2ORDER"> F  </i>
   <i type="logical" name="LDMP1"> F  </i>
   <i type="logical" name="LMP2LT"> F  </i>
   <i type="logical" name="LSMP2LT"> F  </i>
   <i type="logical" name="LGWLF"> F  </i>
   <i name="ENCUTGW">     -1.60000002</i>
   <i name="ENCUTGWSOFT">     -1.60000002</i>
   <i name="ENCUTLF">     -1.00000000</i>
   <i type="logical" name="ESF_SPLINES"> F  </i>
   <i name="ESF_CONV">      0.01000000</i>
   <i type="int" name="ESF_NINTER">    15</i>
   <i type="int" name="LMAXMP2">    -1</i>
   <i name="SCISSOR">      0.00000000</i>
   <i type="int" name="NOMEGA">     0</i>
   <i type="int" name="NOMEGAR">     0</i>
   <i type="int" name="NBANDSGW">    -1</i>
   <i type="int" name="NBANDSO">    -1</i>
   <i type="int" name="NBANDSV">    -1</i>
   <i type="int" name="NELMGW">     1</i>
   <i type="int" name="NELMHF">     1</i>
   <i type="int" name="DIM">     3</i>
   <i type="int" name="IESPILON">     4</i>
   <i type="int" name="ANTIRES">     0</i>
   <i name="OMEGAMAX">    -30.00000000</i>
   <i name="OMEGAMIN">    -30.00000000</i>
   <i name="OMEGATL">   -200.00000000</i>
   <i type="int" name="OMEGAGRID">     0</i>
   <i name="CSHIFT">     -0.10000000</i>
   <i type="logical" name="LSELFENERGY"> F  </i>
   <i type="logical" name="LSPECTRAL"> F  </i>
   <i type="logical" name="LSPECTRALGW"> F  </i>
   <i type="logical" name="LSINGLES"> F  </i>
   <i type="logical" name="LFERMIGW"> F  </i>
   <i type="logical" name="ODDONLYGW"> F  </i>
   <i type="logical" name="EVENONLYGW"> F  </i>
   <i type="int" name="NKREDLFX">     1</i>
   <i type="int" name="NKREDLFY">     1</i>
   <i type="int" name="NKREDLFZ">     1</i>
   <i type="int" name="MAXMEM">  2800</i>
   <i type="int" name="TELESCOPE">     0</i>
   <i type="int" name="NTAUPAR">    -1</i>
   <i type="int" name="NOMEGAPAR">    -1</i>
   <i name="DAMP_NEWTON">      0.80000001</i>
   <i name="LAMBDA">      1.00000000</i>
  </separator>
  <separator name="External order field" >
   <i name="OFIELD_KAPPA">      0.00000000</i>
   <v name="OFIELD_K">      0.00000000      0.00000000      0.00000000</v>
   <i name="OFIELD_Q6_NEAR">      0.00000000</i>
   <i name="OFIELD_Q6_FAR">      0.00000000</i>
   <i name="OFIELD_A">      0.00000000</i>
  </separator>
  <separator name="optional k-points parameters" >
   <i type="int" name="KPOINTS_OPT_MODE">     1</i>
   <i type="logical" name="LKPOINTS_OPT"> F  </i>
  </separator>
 </parameters>
 <atominfo>
  <atoms>      39 </atoms>
  <types>       3 </types>
  <array name="atoms" >
   <dimension dim="1">ion</dimension>
   <field type="string">element</field>
   <field type="int">atomtype</field>
   <set>
    <rc><c>Pd</c><c>   1</c></rc>
    <rc><c>Pd</c><c>   1</c></rc>
    <rc><c>Pd</c><c>   1</c></rc>
    <rc><c>Pd</c><c>   1</c></rc>
    <rc><c>Pd</c><c>   1</c></rc>
    <rc><c>Pd</c><c>   1</c></rc>
    <rc><c>Pd</c><c>   1</c></rc>
    <rc><c>Pd</c><c>   1</c></rc>
    <rc><c>Pd</c><c>   1</c></rc>
    <rc><c>Pd</c><c>   1</c></rc>
    <rc><c>Pd</c><c>   1</c></rc>
    <rc><c>Pd</c><c>   1</c></rc>
    <rc><c>Pd</c><c>   1</c></rc>
    <rc><c>Pd</c><c>   1</c></rc>
    <rc><c>Pd</c><c>   1</c></rc>
    <rc><c>Pd</c><c>   1</c></rc>
    <rc><c>Pd</c><c>   1</c></rc>
    <rc><c>Pd</c><c>   1</c></rc>
    <rc><c>Pd</c><c>   1</c></rc>
    <rc><c>Pd</c><c>   1</c></rc>
    <rc><c>Pd</c><c>   1</c></rc>
    <rc><c>Pd</c><c>   1</c></rc>
    <rc><c>Pd</c><c>   1</c></rc>
    <rc><c>Pd</c><c>   1</c></rc>
    <rc><c>Pd</c><c>   1</c></rc>
    <rc><c>Pd</c><c>   1</c></rc>
    <rc><c>Pd</c><c>   1</c></rc>
    <rc><c>Pd</c><c>   1</c></rc>
    <rc><c>Pd</c><c>   1</c></rc>
    <rc><c>Pd</c><c>   1</c></rc>
    <rc><c>Pd</c><c>   1</c></rc>
    <rc><c>Pd</c><c>   1</c></rc>
    <rc><c>Pd</c><c>   1</c></rc>
    <rc><c>Pd</c><c>   1</c></rc>
    <rc><c>Pd</c><c>   1</c></rc>
    <rc><c>Pd</c><c>   1</c></rc>
    <rc><c>H </c><c>   2</c></rc>
    <rc><c>H </c><c>   2</c></rc>
    <rc><c>S </c><c>   3</c></rc>
   </set>
  </array>
  <array name="atomtypes" >
   <dimension dim="1">type</dimension>
   <field type="int">atomspertype</field>
   <field type="string">element</field>
   <field>mass</field>
   <field>valence</field>
   <field type="string">pseudopotential</field>
   <set>
    <rc><c>  36</c><c>Pd</c><c>    106.42000000</c><c>     10.00000000</c><c>  PAW_PBE Pd 04Jan2005                  </c></rc>
    <rc><c>   2</c><c>H </c><c>      1.00000000</c><c>      1.00000000</c><c>  PAW_PBE H 15Jun2001                   </c></rc>
    <rc><c>   1</c><c>S </c><c>     32.06600000</c><c>      6.00000000</c><c>  PAW_PBE S 06Sep2000                   </c></rc>
   </set>
  </array>
 </atominfo>
 <structure name="initialpos" >
  <crystal>
   <varray name="basis" >
    <v>       8.35800215       0.00000000       0.00000000 </v>
    <v>       0.00000000       8.35800215       0.00000000 </v>
    <v>       0.00000000       0.00000000      19.91000000 </v>
   </varray>
   <i name="volume">   1390.83694200 </i>
   <varray name="rec_basis" >
    <v>       0.11964582       0.00000000       0.00000000 </v>
    <v>       0.00000000       0.11964582       0.00000000 </v>
    <v>       0.00000000       0.00000000       0.05022602 </v>
   </varray>
  </crystal>
  <varray name="positions" >
   <v>       0.16666667       0.16666667       0.00000000 </v>
   <v>       0.50000000       0.16666667       0.00000000 </v>
   <v>       0.83333333       0.16666667       0.00000000 </v>
   <v>       0.16666667       0.50000000       0.00000000 </v>
   <v>       0.50000000       0.50000000       0.00000000 </v>
   <v>       0.83333333       0.50000000       0.00000000 </v>
   <v>       0.16666667       0.83333333       0.00000000 </v>
   <v>       0.50000000       0.83333333       0.00000000 </v>
   <v>       0.83333333       0.83333333       0.00000000 </v>
   <v>       0.00000000       0.00000000       0.09894525 </v>
   <v>       0.33333333       0.00000000       0.09894525 </v>
   <v>       0.66666667       0.00000000       0.09894525 </v>
   <v>       0.00000000       0.33333333       0.09894525 </v>
   <v>       0.33333333       0.33333333       0.09894525 </v>
   <v>       0.66666667       0.33333333       0.09894525 </v>
   <v>       0.00000000       0.66666667       0.09894525 </v>
   <v>       0.33333333       0.66666667       0.09894525 </v>
   <v>       0.66666667       0.66666667       0.09894525 </v>
   <v>       0.16518371       0.16276285       0.19687655 </v>
   <v>       0.50358314       0.16281422       0.19660110 </v>
   <v>       0.83432008       0.16584211       0.19693441 </v>
   <v>       0.16817681       0.49766323       0.19858583 </v>
   <v>       0.49830272       0.49747968       0.19906451 </v>
   <v>       0.83408803       0.49773039       0.19707463 </v>
   <v>       0.16946845       0.82625387       0.19783242 </v>
   <v>       0.49903643       0.82656610       0.19825194 </v>
   <v>       0.83436056       0.83227757       0.19641753 </v>
   <v>       0.00120443       0.99410227       0.29577847 </v>
   <v>       0.33448290       0.98766908       0.29478097 </v>
   <v>       0.66951059       0.99737095       0.29511036 </v>
   <v>       0.99303448       0.32966320       0.29836520 </v>
   <v>       0.32515058       0.31792316       0.29374191 </v>
   <v>       0.67012422       0.32969228       0.30369339 </v>
   <v>       0.00038042       0.66384005       0.29511991 </v>
   <v>       0.33264541       0.65361843       0.30414203 </v>
   <v>       0.66899240       0.66454077       0.29463644 </v>
   <v>       0.79064682       0.35251832       0.36759666 </v>
   <v>       0.48882875       0.50143809       0.40187491 </v>
   <v>       0.36627069       0.39389094       0.39968751 </v>
  </varray>
  <varray name="selective"  type="logical" >
   <v type="logical" >  F  F  F </v>
   <v type="logical" >  F  F  F </v>
   <v type="logical" >  F  F  F </v>
   <v type="logical" >  F  F  F </v>
   <v type="logical" >  F  F  F </v>
   <v type="logical" >  F  F  F </v>
   <v type="logical" >  F  F  F </v>
   <v type="logical" >  F  F  F </v>
   <v type="logical" >  F  F  F </v>
   <v type="logical" >  F  F  F </v>
   <v type="logical" >  F  F  F </v>
   <v type="logical" >  F  F  F </v>
   <v type="logical" >  F  F  F </v>
   <v type="logical" >  F  F  F </v>
   <v type="logical" >  F  F  F </v>
   <v type="logical" >  F  F  F </v>
   <v type="logical" >  F  F  F </v>
   <v type="logical" >  F  F  F </v>
   <v type="logical" >  T  T  T </v>
   <v type="logical" >  T  T  T </v>
   <v type="logical" >  T  T  T </v>
   <v type="logical" >  T  T  T </v>
   <v type="logical" >  T  T  T </v>
   <v type="logical" >  T  T  T </v>
   <v type="logical" >  T  T  T </v>
   <v type="logical" >  T  T  T </v>
   <v type="logical" >  T  T  T </v>
   <v type="logical" >  T  T  T </v>
   <v type="logical" >  T  T  T </v>
   <v type="logical" >  T  T  T </v>
   <v type="logical" >  T  T  T </v>
   <v type="logical" >  T  T  T </v>
   <v type="logical" >  T  T  T </v>
   <v type="logical" >  T  T  T </v>
   <v type="logical" >  T  T  T </v>
   <v type="logical" >  T  T  T </v>
   <v type="logical" >  T  T  T </v>
   <v type="logical" >  T  T  T </v>
   <v type="logical" >  T  T  T </v>
  </varray>
  <nose>
   <v>      -3.00000000       0.00000000       0.00010000       0.00010000 </v>
  </nose>
 </structure>
 <calculation>
  <scstep>
   <time name="dav">    0.96    0.97</time>
   <time name="total">    1.01    1.02</time>
   <dipole>
    <v name="dipole">      0.00000000       0.00000000      -0.00002783 </v>
    <i name="Tr[quadrupol]">  -4525.15094573 </i>
    <i name="Echarged">      0.00000000 </i>
    <i name="Edipol_quadrupol">      0.00000000 </i>
    <i name="Eion">      0.00000000 </i>
   </dipole>
   <energy>
    <i name="alphaZ">    628.75256062 </i>
    <i name="ewald">  75235.53624182 </i>
    <i name="hartreedc">-105973.72315420 </i>
    <i name="XCdc">  -1046.93405220 </i>
    <i name="pawpsdc">  29264.33151030 </i>
    <i name="pawaedc"> -27021.15649540 </i>
    <i name="eentropy">     -0.01506283 </i>
    <i name="bandstr">   1570.84045941 </i>
    <i name="atom">  29452.55580095 </i>
    <i name="e_fr_energy">   2110.18780847 </i>
    <i name="e_wo_entrp">   2110.20287131 </i>
    <i name="e_0_energy">   2110.19282942 </i>
   </energy>
  </scstep>
  <scstep>
   <time name="dav">    0.96    0.97</time>
   <time name="total">    0.96    0.97</time>
   <dipole>
    <v name="dipole">      0.00000000       0.00000000      -0.00002783 </v>
    <i name="Tr[quadrupol]">  -4525.15094573 </i>
    <i name="Echarged">      0.00000000 </i>
    <i name="Edipol_quadrupol">      0.00000000 </i>
    <i name="Eion">      0.00000000 </i>
   </dipole>
   <energy>
    <i name="e_fr_energy">    -61.28546684 </i>
    <i name="e_wo_entrp">    -61.30261509 </i>
    <i name="e_0_energy">    -61.29118292 </i>
   </energy>
  </scstep>
  <scstep>
   <time name="dav">    1.00    1.00</time>
   <time name="total">    1.00    1.00</time>
   <dipole>
    <v name="dipole">      0.00000000       0.00000000      -0.00002783 </v>
    <i name="Tr[quadrupol]">  -4525.15094573 </i>
    <i name="Echarged">      0.00000000 </i>
    <i name="Edipol_quadrupol">      0.00000000 </i>
    <i name="Eion">      0.00000000 </i>
   </dipole>
   <energy>
    <i name="e_fr_energy">   -190.57816558 </i>
    <i name="e_wo_entrp">   -190.51378742 </i>
    <i name="e_0_energy">   -190.55670619 </i>
   </energy>
  </scstep>
  <scstep>
   <time name="dav">    0.99    1.00</time>
   <time name="total">    0.99    1.00</time>
   <dipole>
    <v name="dipole">      0.00000000       0.00000000      -0.00002783 </v>
    <i name="Tr[quadrupol]">  -4525.15094573 </i>
    <i name="Echarged">      0.00000000 </i>
    <i name="Edipol_quadrupol">      0.00000000 </i>
    <i name="Eion">      0.00000000 </i>
   </dipole>
   <energy>
    <i name="e_fr_energy">   -195.59070666 </i>
    <i name="e_wo_entrp">   -195.51145211 </i>
    <i name="e_0_energy">   -195.56428848 </i>
   </energy>
  </scstep>
  <scstep>
   <time name="dav">    1.05    1.06</time>
   <time name="total">    1.10    1.11</time>
   <dipole>
    <v name="dipole">      0.00000000       0.00000000      -0.00002783 </v>
    <i name="Tr[quadrupol]">  -4525.15094573 </i>
    <i name="Echarged">      0.00000000 </i>
    <i name="Edipol_quadrupol">      0.00000000 </i>
    <i name="Eion">      0.00000000 </i>
   </dipole>
   <energy>
    <i name="e_fr_energy">   -195.75679314 </i>
    <i name="e_wo_entrp">   -195.67748021 </i>
    <i name="e_0_energy">   -195.73035550 </i>
   </energy>
  </scstep>
  <scstep>
   <time name="diag">    0.15    0.15</time>
   <time name="diis">    0.53    0.53</time>
   <time name="orth">    0.02    0.02</time>
   <time name="total">    0.79    0.79</time>
   <dipole>
    <v name="dipole">      0.00000000       0.00000000      -0.04514082 </v>
    <i name="Tr[quadrupol]">  -4528.18181782 </i>
    <i name="Echarged">      0.00000000 </i>
    <i name="Edipol_quadrupol">      0.00000000 </i>
    <i name="Eion">      0.00000000 </i>
   </dipole>
   <energy>
    <i name="e_fr_energy">   -187.91547933 </i>
    <i name="e_wo_entrp">   -187.86650003 </i>
    <i name="e_0_energy">   -187.89915290 </i>
   </energy>
  </scstep>
  <scstep>
   <time name="diag">    0.15    0.15</time>
   <time name="diis">    0.55    0.56</time>
   <time name="orth">    0.02    0.02</time>
   <time name="total">    0.81    0.81</time>
   <dipole>
    <v name="dipole">      0.00000000       0.00000000       1.08842250 </v>
    <i name="Tr[quadrupol]">  -4532.14237565 </i>
    <i name="Echarged">      0.00000000 </i>
    <i name="Edipol_quadrupol">      0.00000000 </i>
    <i name="Eion">      0.00000000 </i>
   </dipole>
   <energy>
    <i name="e_fr_energy">   -212.91618666 </i>
    <i name="e_wo_entrp">   -212.92728580 </i>
    <i name="e_0_energy">   -212.91988638 </i>
   </energy>
  </scstep>
  <scstep>
   <time name="diag">    0.15    0.15</time>
   <time name="diis">    0.56    0.56</time>
   <time name="orth">    0.02    0.02</time>
   <time name="total">    0.82    0.82</time>
   <dipole>
    <v name="dipole">      0.00000000       0.00000000      -0.52900871 </v>
    <i name="Tr[quadrupol]">  -4532.69734454 </i>
    <i name="Echarged">      0.00000000 </i>
    <i name="Edipol_quadrupol">      0.00000000 </i>
    <i name="Eion">      0.00000000 </i>
   </dipole>
   <energy>
    <i name="e_fr_energy">   -194.76306815 </i>
    <i name="e_wo_entrp">   -194.76765630 </i>
    <i name="e_0_energy">   -194.76459754 </i>
   </energy>
  </scstep>
  <scstep>
   <time name="diag">    0.15    0.15</time>
   <time name="diis">    0.53    0.54</time>
   <time name="orth">    0.02    0.02</time>
   <time name="total">    0.79    0.79</time>
   <dipole>
    <v name="dipole">      0.00000000       0.00000000      -0.04288974 </v>
    <i name="Tr[quadrupol]">  -4532.53799076 </i>
    <i name="Echarged">      0.00000000 </i>
    <i name="Edipol_quadrupol">      0.00000000 </i>
    <i name="Eion">      0.00000000 </i>
   </dipole>
   <energy>
    <i name="e_fr_energy">   -189.49496667 </i>
    <i name="e_wo_entrp">   -189.46233610 </i>
    <i name="e_0_energy">   -189.48408981 </i>
   </energy>
  </scstep>
  <scstep>
   <time name="diag">    0.15    0.15</time>
   <time name="diis">    0.54    0.55</time>
   <time name="orth">    0.02    0.02</time>
   <time name="total">    0.80    0.80</time>
   <dipole>
    <v name="dipole">      0.00000000       0.00000000      -0.21105520 </v>
    <i name="Tr[quadrupol]">  -4531.72638925 </i>
    <i name="Echarged">      0.00000000 </i>
    <i name="Edipol_quadrupol">      0.00000000 </i>
    <i name="Eion">      0.00000000 </i>
   </dipole>
   <energy>
    <i name="e_fr_energy">   -189.35988393 </i>
    <i name="e_wo_entrp">   -189.35506241 </i>
    <i name="e_0_energy">   -189.35827676 </i>
   </energy>
  </scstep>
  <scstep>
   <time name="diag">    0.15    0.15</time>
   <time name="diis">    0.54    0.54</time>
   <time name="orth">    0.02    0.02</time>
   <time name="total">    0.80    0.80</time>
   <dipole>
    <v name="dipole">      0.00000000       0.00000000       0.10958229 </v>
    <i name="Tr[quadrupol]">  -4533.08147836 </i>
    <i name="Echarged">      0.00000000 </i>
    <i name="Edipol_quadrupol">      0.00000000 </i>
    <i name="Eion">      0.00000000 </i>
   </dipole>
   <energy>
    <i name="e_fr_energy">   -188.31087440 </i>
    <i name="e_wo_entrp">   -188.24449146 </i>
    <i name="e_0_energy">   -188.28874675 </i>
   </energy>
  </scstep>
  <scstep>
   <time name="diag">    0.15    0.15</time>
   <time name="diis">    0.52    0.52</time>
   <time name="orth">    0.02    0.02</time>
   <time name="total">    0.78    0.78</time>
   <dipole>
    <v name="dipole">      0.00000000       0.00000000      -0.00360816 </v>
    <i name="Tr[quadrupol]">  -4533.11298147 </i>
    <i name="Echarged">      0.00000000 </i>
    <i name="Edipol_quadrupol">      0.00000000 </i>
    <i name="Eion">      0.00000000 </i>
   </dipole>
   <energy>
    <i name="e_fr_energy">   -186.98797229 </i>
    <i name="e_wo_entrp">   -186.90719193 </i>
    <i name="e_0_energy">   -186.96104550 </i>
   </energy>
  </scstep>
  <scstep>
   <time name="diag">    0.15    0.15</time>
   <time name="diis">    0.53    0.53</time>
   <time name="orth">    0.02    0.02</time>
   <time name="total">    0.79    0.79</time>
   <dipole>
    <v name="dipole">      0.00000000       0.00000000       0.00172554 </v>
    <i name="Tr[quadrupol]">  -4533.11068343 </i>
    <i name="Echarged">      0.00000000 </i>
    <i name="Edipol_quadrupol">      0.00000000 </i>
    <i name="Eion">      0.00000000 </i>
   </dipole>
   <energy>
    <i name="e_fr_energy">   -186.83899939 </i>
    <i name="e_wo_entrp">   -186.76237684 </i>
    <i name="e_0_energy">   -186.81345854 </i>
   </energy>
  </scstep>
  <scstep>
   <time name="diag">    0.15    0.15</time>
   <time name="diis">    0.54    0.55</time>
   <time name="orth">    0.02    0.02</time>
   <time name="total">    0.80    0.80</time>
   <dipole>
    <v name="dipole">      0.00000000       0.00000000      -0.01155142 </v>
    <i name="Tr[quadrupol]">  -4533.36664124 </i>
    <i name="Echarged">      0.00000000 </i>
    <i name="Edipol_quadrupol">      0.00000000 </i>
    <i name="Eion">      0.00000000 </i>
   </dipole>
   <energy>
    <i name="e_fr_energy">   -186.80895351 </i>
    <i name="e_wo_entrp">   -186.73095225 </i>
    <i name="e_0_energy">   -186.78295309 </i>
   </energy>
  </scstep>
  <scstep>
   <time name="diag">    0.15    0.15</time>
   <time name="diis">    0.53    0.54</time>
   <time name="orth">    0.02    0.02</time>
   <time name="total">    0.79    0.80</time>
   <dipole>
    <v name="dipole">      0.00000000       0.00000000      -0.00335343 </v>
    <i name="Tr[quadrupol]">  -4533.42568915 </i>
    <i name="Echarged">      0.00000000 </i>
    <i name="Edipol_quadrupol">      0.00000000 </i>
    <i name="Eion">      0.00000000 </i>
   </dipole>
   <energy>
    <i name="e_fr_energy">   -186.80615762 </i>
    <i name="e_wo_entrp">   -186.72551831 </i>
    <i name="e_0_energy">   -186.77927785 </i>
   </energy>
  </scstep>
  <scstep>
   <time name="diag">    0.15    0.15</time>
   <time name="diis">    0.54    0.55</time>
   <time name="orth">    0.02    0.02</time>
   <time name="total">    0.80    0.80</time>
   <dipole>
    <v name="dipole">      0.00000000       0.00000000       0.01359630 </v>
    <i name="Tr[quadrupol]">  -4533.84236180 </i>
    <i name="Echarged">      0.00000000 </i>
    <i name="Edipol_quadrupol">      0.00000000 </i>
    <i name="Eion">      0.00000000 </i>
   </dipole>
   <energy>
    <i name="e_fr_energy">   -186.80242938 </i>
    <i name="e_wo_entrp">   -186.72329227 </i>
    <i name="e_0_energy">   -186.77605035 </i>
   </energy>
  </scstep>
  <scstep>
   <time name="diag">    0.15    0.15</time>
   <time name="diis">    0.55    0.55</time>
   <time name="orth">    0.02    0.02</time>
   <time name="total">    0.80    0.81</time>
   <dipole>
    <v name="dipole">      0.00000000       0.00000000       0.02466227 </v>
    <i name="Tr[quadrupol]">  -4534.14921360 </i>
    <i name="Echarged">      0.00000000 </i>
    <i name="Edipol_quadrupol">      0.00000000 </i>
    <i name="Eion">      0.00000000 </i>
   </dipole>
   <energy>
    <i name="e_fr_energy">   -186.78627072 </i>
    <i name="e_wo_entrp">   -186.70907200 </i>
    <i name="e_0_energy">   -186.76053781 </i>
   </energy>
  </scstep>
  <scstep>
   <time name="diag">    0.15    0.15</time>
   <time name="diis">    0.53    0.53</time>
   <time name="orth">    0.02    0.02</time>
   <time name="total">    0.79    0.79</time>
   <dipole>
    <v name="dipole">      0.00000000       0.00000000       0.02427423 </v>
    <i name="Tr[quadrupol]">  -4534.42159612 </i>
    <i name="Echarged">      0.00000000 </i>
    <i name="Edipol_quadrupol">      0.00000000 </i>
    <i name="Eion">      0.00000000 </i>
   </dipole>
   <energy>
    <i name="e_fr_energy">   -186.77418357 </i>
    <i name="e_wo_entrp">   -186.69697074 </i>
    <i name="e_0_energy">   -186.74844596 </i>
   </energy>
  </scstep>
  <scstep>
   <time name="diag">    0.15    0.15</time>
   <time name="diis">    0.54    0.54</time>
   <time name="orth">    0.02    0.02</time>
   <time name="total">    0.79    0.80</time>
   <dipole>
    <v name="dipole">      0.00000000       0.00000000       0.02547962 </v>
    <i name="Tr[quadrupol]">  -4534.63589478 </i>
    <i name="Echarged">      0.00000000 </i>
    <i name="Edipol_quadrupol">      0.00000000 </i>
    <i name="Eion">      0.00000000 </i>
   </dipole>
   <energy>
    <i name="e_fr_energy">   -186.77179962 </i>
    <i name="e_wo_entrp">   -186.69360733 </i>
    <i name="e_0_energy">   -186.74573552 </i>
   </energy>
  </scstep>
  <scstep>
   <time name="diag">    0.15    0.15</time>
   <time name="diis">    0.54    0.54</time>
   <time name="orth">    0.02    0.02</time>
   <time name="total">    0.80    0.80</time>
   <dipole>
    <v name="dipole">      0.00000000       0.00000000       0.02812811 </v>
    <i name="Tr[quadrupol]">  -4534.76955264 </i>
    <i name="Echarged">      0.00000000 </i>
    <i name="Edipol_quadrupol">      0.00000000 </i>
    <i name="Eion">      0.00000000 </i>
   </dipole>
   <energy>
    <i name="e_fr_energy">   -186.77161633 </i>
    <i name="e_wo_entrp">   -186.69265864 </i>
    <i name="e_0_energy">   -186.74529710 </i>
   </energy>
  </scstep>
  <scstep>
   <time name="diag">    0.15    0.15</time>
   <time name="diis">    0.55    0.55</time>
   <time name="orth">    0.02    0.02</time>
   <time name="total">    0.81    0.81</time>
   <dipole>
    <v name="dipole">      0.00000000       0.00000000       0.03114252 </v>
    <i name="Tr[quadrupol]">  -4534.97769339 </i>
    <i name="Echarged">      0.00000000 </i>
    <i name="Edipol_quadrupol">      0.00000000 </i>
    <i name="Eion">      0.00000000 </i>
   </dipole>
   <energy>
    <i name="e_fr_energy">   -186.77047685 </i>
    <i name="e_wo_entrp">   -186.69190276 </i>
    <i name="e_0_energy">   -186.74428549 </i>
   </energy>
  </scstep>
  <scstep>
   <time name="diag">    0.15    0.15</time>
   <time name="diis">    0.53    0.54</time>
   <time name="orth">    0.02    0.02</time>
   <time name="total">    0.79    0.80</time>
   <dipole>
    <v name="dipole">      0.00000000       0.00000000       0.03095207 </v>
    <i name="Tr[quadrupol]">  -4535.07411072 </i>
    <i name="Echarged">      0.00000000 </i>
    <i name="Edipol_quadrupol">      0.00000000 </i>
    <i name="Eion">      0.00000000 </i>
   </dipole>
   <energy>
    <i name="e_fr_energy">   -186.77002772 </i>
    <i name="e_wo_entrp">   -186.69097406 </i>
    <i name="e_0_energy">   -186.74367650 </i>
   </energy>
  </scstep>
  <scstep>
   <time name="diag">    0.15    0.15</time>
   <time name="diis">    0.52    0.52</time>
   <time name="orth">    0.02    0.02</time>
   <time name="total">    0.73    0.74</time>
   <dipole>
    <v name="dipole">      0.00000000       0.00000000       0.03286501 </v>
    <i name="Tr[quadrupol]">  -4535.24145473 </i>
    <i name="Echarged">      0.00000000 </i>
    <i name="Edipol_quadrupol">      0.00000000 </i>
    <i name="Eion">      0.00000000 </i>
   </dipole>
   <energy>
    <i name="alphaZ">    628.85694026 </i>
    <i name="ewald">  75235.53624182 </i>
    <i name="hartreedc">-106004.06714412 </i>
    <i name="XCdc">  -1053.55716843 </i>
    <i name="pawpsdc">  34259.73216793 </i>
    <i name="pawaedc"> -32089.11725270 </i>
    <i name="eentropy">     -0.07865413 </i>
    <i name="bandstr">   -616.63087869 </i>
    <i name="atom">  29452.55580095 </i>
    <i name="e_fr_energy">   -186.76994710 </i>
    <i name="e_wo_entrp">   -186.69129298 </i>
    <i name="e_0_energy">   -186.74372906 </i>
   </energy>
  </scstep>
  <structure>
   <crystal>
    <varray name="basis" >
     <v>       8.35800215       0.00000000       0.00000000 </v>
     <v>       0.00000000       8.35800215       0.00000000 </v>
     <v>       0.00000000       0.00000000      19.91000000 </v>
    </varray>
    <i name="volume">   1390.83694200 </i>
    <varray name="rec_basis" >
     <v>       0.11964582       0.00000000       0.00000000 </v>
     <v>       0.00000000       0.11964582       0.00000000 </v>
     <v>       0.00000000       0.00000000       0.05022602 </v>
    </varray>
   </crystal>
   <varray name="positions" >
    <v>       0.16666667       0.16666667       0.00000000 </v>
    <v>       0.50000000       0.16666667       0.00000000 </v>
    <v>       0.83333333       0.16666667       0.00000000 </v>
    <v>       0.16666667       0.50000000       0.00000000 </v>
    <v>       0.50000000       0.50000000       0.00000000 </v>
    <v>       0.83333333       0.50000000       0.00000000 </v>
    <v>       0.16666667       0.83333333       0.00000000 </v>
    <v>       0.50000000       0.83333333       0.00000000 </v>
    <v>       0.83333333       0.83333333       0.00000000 </v>
    <v>       0.00000000       0.00000000       0.09894525 </v>
    <v>       0.33333333       0.00000000       0.09894525 </v>
    <v>       0.66666667       0.00000000       0.09894525 </v>
    <v>       0.00000000       0.33333333       0.09894525 </v>
    <v>       0.33333333       0.33333333       0.09894525 </v>
    <v>       0.66666667       0.33333333       0.09894525 </v>
    <v>       0.00000000       0.66666667       0.09894525 </v>
    <v>       0.33333333       0.66666667       0.09894525 </v>
    <v>       0.66666667       0.66666667       0.09894525 </v>
    <v>       0.16518371       0.16276285       0.19687655 </v>
    <v>       0.50358314       0.16281422       0.19660110 </v>
    <v>       0.83432008       0.16584211       0.19693441 </v>
    <v>       0.16817681       0.49766323       0.19858583 </v>
    <v>       0.49830272       0.49747968       0.19906451 </v>
    <v>       0.83408803       0.49773039       0.19707463 </v>
    <v>       0.16946845       0.82625387       0.19783242 </v>
    <v>       0.49903643       0.82656610       0.19825194 </v>
    <v>       0.83436056       0.83227757       0.19641753 </v>
    <v>       0.00120443       0.99410227       0.29577847 </v>
    <v>       0.33448290       0.98766908       0.29478097 </v>
    <v>       0.66951059       0.99737095       0.29511036 </v>
    <v>       0.99303448       0.32966320       0.29836520 </v>
    <v>       0.32515058       0.31792316       0.29374191 </v>
    <v>       0.67012422       0.32969228       0.30369339 </v>
    <v>       0.00038042       0.66384005       0.29511991 </v>
    <v>       0.33264541       0.65361843       0.30414203 </v>
    <v>       0.66899240       0.66454077       0.29463644 </v>
    <v>       0.79064682       0.35251832       0.36759666 </v>
    <v>       0.48882875       0.50143809       0.40187491 </v>
    <v>       0.36627069       0.39389094       0.39968751 </v>
   </varray>
  </structure>
  <varray name="forces" >
   <v>      -0.00692915       0.01124588       0.11965823 </v>
   <v>       0.00309748       0.00352095       0.12665594 </v>
   <v>      -0.00599523       0.03026425       0.07808277 </v>
   <v>      -0.00513120      -0.00605481       0.11153878 </v>
   <v>      -0.00776034       0.01816677       0.10136548 </v>
   <v>      -0.00391631      -0.00540856       0.10907875 </v>
   <v>       0.01643288      -0.02361918       0.10028173 </v>
   <v>      -0.00700588      -0.00774004       0.11114396 </v>
   <v>      -0.01965190      -0.00170123       0.07098903 </v>
   <v>       0.03922193      -0.09048560      -0.20537259 </v>
   <v>      -0.02098492      -0.12862825      -0.01509192 </v>
   <v>      -0.01380104      -0.07854075      -0.11441746 </v>
   <v>       0.04846192      -0.00667467      -0.06734526 </v>
   <v>       0.03058169      -0.02713915       0.01185080 </v>
   <v>      -0.04037396       0.04117629      -0.07835227 </v>
   <v>       0.06284044      -0.04155283      -0.06309415 </v>
   <v>       0.01948763      -0.11357904      -0.17787281 </v>
   <v>      -0.05438588      -0.07529943      -0.01421988 </v>
   <v>       0.01138148      -0.01399707       0.03095764 </v>
   <v>      -0.04227717       0.08435449       0.20762295 </v>
   <v>      -0.09417845       0.05134259       0.10724820 </v>
   <v>      -0.14219900      -0.06438445      -0.06574029 </v>
   <v>       0.19091041      -0.10394327       0.00039220 </v>
   <v>      -0.11427984      -0.07177037       0.05615518 </v>
   <v>      -0.04511618       0.07609879       0.00365409 </v>
   <v>       0.03872770       0.08391267      -0.02663220 </v>
   <v>       0.00895819       0.00811245      -0.00252130 </v>
   <v>       0.01306700       0.02773958      -0.05484237 </v>
   <v>      -0.01753003       0.04284490       0.02048402 </v>
   <v>      -0.01821749      -0.07037349      -0.01193448 </v>
   <v>      -0.11041392       0.02999495       0.16321668 </v>
   <v>       0.13403065      -0.11827526       0.08923053 </v>
   <v>      -0.16740506       0.05708189      -0.00697899 </v>
   <v>      -0.03230998       0.07001802       0.03131520 </v>
   <v>      -0.01505748       0.01457532      -0.01657287 </v>
   <v>       0.00337194       0.00612828       0.05898009 </v>
   <v>       0.26258382      -0.09130194      -0.69229968 </v>
   <v>       0.16887636      -0.02996023      -0.06503948 </v>
   <v>      -0.06711114       0.51385155      -0.03157423 </v>
  </varray>
  <varray name="stress" >
   <v>     -26.21352040       0.54198347       0.96792733 </v>
   <v>       0.54198361     -26.85564568       3.10002917 </v>
   <v>       0.96792741       3.10002916      -6.28242930 </v>
  </varray>
  <energy>
   <i name="e_fr_energy">   -186.76994710 </i>
   <i name="e_wo_entrp">   -186.69129298 </i>
   <i name="e_0_energy">   -186.74372906 </i>
  </energy>
  <time name="totalsc">   20.25   20.37</time>
  <eigenvalues>
   <array>
    <dimension dim="1">band</dimension>
    <dimension dim="2">kpoint</dimension>
    <dimension dim="3">spin</dimension>
    <field>eigene</field>
    <field>occ</field>
    <set>
     <set comment="spin 1">
      <set comment="kpoint 1">
       <r>  -12.6319    1.0000 </r>
       <r>   -5.3967    1.0000 </r>
       <r>   -5.2310    1.0000 </r>
       <r>   -4.4711    1.0000 </r>
       <r>   -4.3587    1.0000 </r>
       <r>   -4.2653    1.0000 </r>
       <r>   -4.0548    1.0000 </r>
       <r>   -3.9429    1.0000 </r>
       <r>   -3.9101    1.0000 </r>
       <r>   -3.9017    1.0000 </r>
       <r>   -3.8802    1.0000 </r>
       <r>   -3.8675    1.0000 </r>
       <r>   -3.8510    1.0000 </r>
       <r>   -3.7891    1.0000 </r>
       <r>   -3.7589    1.0000 </r>
       <r>   -3.7249    1.0000 </r>
       <r>   -3.7068    1.0000 </r>
       <r>   -3.7028    1.0000 </r>
       <r>   -3.6451    1.0000 </r>
       <r>   -3.6091    1.0000 </r>
       <r>   -3.5440    1.0000 </r>
       <r>   -3.4836    1.0000 </r>
       <r>   -3.4711    1.0000 </r>
       <r>   -3.4545    1.0000 </r>
       <r>   -3.4207    1.0000 </r>
       <r>   -3.3808    1.0000 </r>
       <r>   -3.3363    1.0000 </r>
       <r>   -3.3182    1.0000 </r>
       <r>   -3.3043    1.0000 </r>
       <r>   -3.2892    1.0000 </r>
       <r>   -3.2640    1.0000 </r>
       <r>   -3.2255    1.0000 </r>
       <r>   -3.2016    1.0000 </r>
       <r>   -3.1708    1.0000 </r>
       <r>   -3.1395    1.0000 </r>
       <r>   -3.0882    1.0000 </r>
       <r>   -3.0671    1.0000 </r>
       <r>   -3.0329    1.0000 </r>
       <r>   -3.0143    1.0000 </r>
       <r>   -2.9925    1.0000 </r>
       <r>   -2.9793    1.0000 </r>
       <r>   -2.9609    1.0000 </r>
       <r>   -2.9469    1.0000 </r>
       <r>   -2.9188    1.0000 </r>
       <r>   -2.8775    1.0000 </r>
       <r>   -2.8354    1.0000 </r>
       <r>   -2.7949    1.0000 </r>
       <r>   -2.7132    1.0000 </r>
       <r>   -2.6869    1.0000 </r>
       <r>   -2.6757    1.0000 </r>
       <r>   -2.6362    1.0000 </r>
       <r>   -2.6018    1.0000 </r>
       <r>   -2.5744    1.0000 </r>
       <r>   -2.5363    1.0000 </r>
       <r>   -2.5264    1.0000 </r>
       <r>   -2.5098    1.0000 </r>
       <r>   -2.4794    1.0000 </r>
       <r>   -2.4472    1.0000 </r>
       <r>   -2.4071    1.0000 </r>
       <r>   -2.3881    1.0000 </r>
       <r>   -2.3552    1.0000 </r>
       <r>   -2.2887    1.0000 </r>
       <r>   -2.2638    1.0000 </r>
       <r>   -2.2222    1.0000 </r>
       <r>   -2.1933    1.0000 </r>
       <r>   -2.1755    1.0000 </r>
       <r>   -2.1679    1.0000 </r>
       <r>   -2.1470    1.0000 </r>
       <r>   -2.1128    1.0000 </r>
       <r>   -2.0941    1.0000 </r>
       <r>   -2.0579    1.0000 </r>
       <r>   -2.0443    1.0000 </r>
       <r>   -2.0128    1.0000 </r>
       <r>   -1.9542    1.0000 </r>
       <r>   -1.9119    1.0000 </r>
       <r>   -1.8990    1.0000 </r>
       <r>   -1.8387    1.0000 </r>
       <r>   -1.8313    1.0000 </r>
       <r>   -1.8211    1.0000 </r>
       <r>   -1.7773    1.0000 </r>
       <r>   -1.7621    1.0000 </r>
       <r>   -1.7492    1.0000 </r>
       <r>   -1.7242    1.0000 </r>
       <r>   -1.7018    1.0000 </r>
       <r>   -1.6959    1.0000 </r>
       <r>   -1.6750    1.0000 </r>
       <r>   -1.6610    1.0000 </r>
       <r>   -1.6515    1.0000 </r>
       <r>   -1.6358    1.0000 </r>
       <r>   -1.6266    1.0000 </r>
       <r>   -1.6073    1.0000 </r>
       <r>   -1.5568    1.0000 </r>
       <r>   -1.5360    1.0000 </r>
       <r>   -1.4985    1.0000 </r>
       <r>   -1.4800    1.0000 </r>
       <r>   -1.4661    1.0000 </r>
       <r>   -1.4540    1.0000 </r>
       <r>   -1.4082    1.0000 </r>
       <r>   -1.4025    1.0000 </r>
       <r>   -1.3707    1.0000 </r>
       <r>   -1.3402    1.0000 </r>
       <r>   -1.3173    1.0000 </r>
       <r>   -1.3000    1.0000 </r>
       <r>   -1.2350    1.0000 </r>
       <r>   -1.1873    1.0000 </r>
       <r>   -1.1811    1.0000 </r>
       <r>   -1.1345    1.0000 </r>
       <r>   -1.1263    1.0000 </r>
       <r>   -1.1087    1.0000 </r>
       <r>   -1.0831    1.0000 </r>
       <r>   -1.0264    1.0000 </r>
       <r>   -0.9775    1.0000 </r>
       <r>   -0.9620    1.0000 </r>
       <r>   -0.9391    1.0000 </r>
       <r>   -0.9228    1.0000 </r>
       <r>   -0.9154    1.0000 </r>
       <r>   -0.8885    1.0000 </r>
       <r>   -0.8713    1.0000 </r>
       <r>   -0.8621    1.0000 </r>
       <r>   -0.8550    1.0000 </r>
       <r>   -0.8305    1.0000 </r>
       <r>   -0.8185    1.0000 </r>
       <r>   -0.8058    1.0000 </r>
       <r>   -0.7862    1.0000 </r>
       <r>   -0.7726    1.0000 </r>
       <r>   -0.7453    1.0000 </r>
       <r>   -0.7328    1.0000 </r>
       <r>   -0.7186    1.0000 </r>
       <r>   -0.6993    1.0000 </r>
       <r>   -0.6578    1.0000 </r>
       <r>   -0.6459    1.0000 </r>
       <r>   -0.5845    1.0000 </r>
       <r>   -0.5451    1.0000 </r>
       <r>   -0.5141    1.0000 </r>
       <r>   -0.5025    1.0000 </r>
       <r>   -0.4908    1.0000 </r>
       <r>   -0.4547    1.0000 </r>
       <r>   -0.4471    1.0000 </r>
       <r>   -0.4256    1.0000 </r>
       <r>   -0.4049    1.0000 </r>
       <r>   -0.3582    1.0000 </r>
       <r>   -0.3151    1.0000 </r>
       <r>   -0.2760    1.0000 </r>
       <r>   -0.2621    1.0000 </r>
       <r>   -0.2468    1.0000 </r>
       <r>   -0.2304    1.0000 </r>
       <r>   -0.2147    1.0000 </r>
       <r>   -0.2069    1.0000 </r>
       <r>   -0.1816    1.0000 </r>
       <r>   -0.1456    1.0000 </r>
       <r>   -0.1221    1.0000 </r>
       <r>   -0.0761    1.0000 </r>
       <r>   -0.0420    1.0000 </r>
       <r>   -0.0169    1.0000 </r>
       <r>    0.0019    1.0000 </r>
       <r>    0.0410    1.0000 </r>
       <r>    0.0715    1.0000 </r>
       <r>    0.0896    1.0000 </r>
       <r>    0.1003    1.0000 </r>
       <r>    0.1123    1.0000 </r>
       <r>    0.1334    1.0000 </r>
       <r>    0.1619    1.0000 </r>
       <r>    0.1819    1.0000 </r>
       <r>    0.1889    1.0000 </r>
       <r>    0.2130    1.0000 </r>
       <r>    0.2426    1.0000 </r>
       <r>    0.2948    1.0000 </r>
       <r>    0.3028    1.0001 </r>
       <r>    0.3120    1.0001 </r>
       <r>    0.3494    1.0006 </r>
       <r>    0.3606    1.0010 </r>
       <r>    0.3697    1.0015 </r>
       <r>    0.3811    1.0025 </r>
       <r>    0.3931    1.0040 </r>
       <r>    0.3996    1.0050 </r>
       <r>    0.4281    1.0126 </r>
       <r>    0.4500    1.0216 </r>
       <r>    0.4720    1.0313 </r>
       <r>    0.4928    1.0354 </r>
       <r>    0.5193    1.0175 </r>
       <r>    0.5605    0.8840 </r>
       <r>    0.5875    0.7088 </r>
       <r>    0.5974    0.6313 </r>
       <r>    0.6016    0.5969 </r>
       <r>    0.6228    0.4185 </r>
       <r>    0.6290    0.3674 </r>
       <r>    0.6493    0.2150 </r>
       <r>    0.6881    0.0239 </r>
       <r>    0.7068   -0.0173 </r>
       <r>    0.7705   -0.0243 </r>
       <r>    0.8872   -0.0004 </r>
       <r>    0.9452   -0.0000 </r>
       <r>    1.2610   -0.0000 </r>
       <r>    1.4606   -0.0000 </r>
       <r>    1.4844   -0.0000 </r>
       <r>    1.5126   -0.0000 </r>
       <r>    1.6738   -0.0000 </r>
       <r>    1.7821   -0.0000 </r>
       <r>    2.0179   -0.0000 </r>
       <r>    2.1060   -0.0000 </r>
       <r>    2.1420   -0.0000 </r>
       <r>    2.3603   -0.0000 </r>
       <r>    2.9447    0.0000 </r>
       <r>    3.2112    0.0000 </r>
       <r>    3.2858    0.0000 </r>
       <r>    3.3932    0.0000 </r>
       <r>    3.4724    0.0000 </r>
       <r>    3.5694    0.0000 </r>
       <r>    3.7826    0.0000 </r>
       <r>    4.1272    0.0000 </r>
       <r>    4.2653    0.0000 </r>
       <r>    4.6048    0.0000 </r>
       <r>    4.7515    0.0000 </r>
       <r>    4.8501    0.0000 </r>
       <r>    5.1539    0.0000 </r>
       <r>    5.2411    0.0000 </r>
       <r>    5.4859    0.0000 </r>
       <r>    5.7395    0.0000 </r>
       <r>    5.8650    0.0000 </r>
       <r>    5.9130    0.0000 </r>
      </set>
      <set comment="kpoint 2">
       <r>  -12.6319    1.0000 </r>
       <r>   -5.3779    1.0000 </r>
       <r>   -5.2565    1.0000 </r>
       <r>   -4.4594    1.0000 </r>
       <r>   -4.3513    1.0000 </r>
       <r>   -4.2737    1.0000 </r>
       <r>   -4.0550    1.0000 </r>
       <r>   -3.9536    1.0000 </r>
       <r>   -3.9181    1.0000 </r>
       <r>   -3.8962    1.0000 </r>
       <r>   -3.8775    1.0000 </r>
       <r>   -3.8687    1.0000 </r>
       <r>   -3.8445    1.0000 </r>
       <r>   -3.7936    1.0000 </r>
       <r>   -3.7617    1.0000 </r>
       <r>   -3.7239    1.0000 </r>
       <r>   -3.7049    1.0000 </r>
       <r>   -3.6963    1.0000 </r>
       <r>   -3.6594    1.0000 </r>
       <r>   -3.5968    1.0000 </r>
       <r>   -3.5145    1.0000 </r>
       <r>   -3.5074    1.0000 </r>
       <r>   -3.4733    1.0000 </r>
       <r>   -3.4570    1.0000 </r>
       <r>   -3.4401    1.0000 </r>
       <r>   -3.3760    1.0000 </r>
       <r>   -3.3348    1.0000 </r>
       <r>   -3.3150    1.0000 </r>
       <r>   -3.3070    1.0000 </r>
       <r>   -3.2732    1.0000 </r>
       <r>   -3.2648    1.0000 </r>
       <r>   -3.2394    1.0000 </r>
       <r>   -3.1809    1.0000 </r>
       <r>   -3.1668    1.0000 </r>
       <r>   -3.1259    1.0000 </r>
       <r>   -3.0908    1.0000 </r>
       <r>   -3.0790    1.0000 </r>
       <r>   -3.0338    1.0000 </r>
       <r>   -3.0056    1.0000 </r>
       <r>   -2.9959    1.0000 </r>
       <r>   -2.9736    1.0000 </r>
       <r>   -2.9601    1.0000 </r>
       <r>   -2.9521    1.0000 </r>
       <r>   -2.9187    1.0000 </r>
       <r>   -2.8869    1.0000 </r>
       <r>   -2.8440    1.0000 </r>
       <r>   -2.7944    1.0000 </r>
       <r>   -2.7186    1.0000 </r>
       <r>   -2.6878    1.0000 </r>
       <r>   -2.6771    1.0000 </r>
       <r>   -2.6219    1.0000 </r>
       <r>   -2.6067    1.0000 </r>
       <r>   -2.5665    1.0000 </r>
       <r>   -2.5454    1.0000 </r>
       <r>   -2.5289    1.0000 </r>
       <r>   -2.5109    1.0000 </r>
       <r>   -2.4788    1.0000 </r>
       <r>   -2.4591    1.0000 </r>
       <r>   -2.4041    1.0000 </r>
       <r>   -2.3655    1.0000 </r>
       <r>   -2.3336    1.0000 </r>
       <r>   -2.2965    1.0000 </r>
       <r>   -2.2624    1.0000 </r>
       <r>   -2.2287    1.0000 </r>
       <r>   -2.1951    1.0000 </r>
       <r>   -2.1863    1.0000 </r>
       <r>   -2.1650    1.0000 </r>
       <r>   -2.1458    1.0000 </r>
       <r>   -2.1276    1.0000 </r>
       <r>   -2.0934    1.0000 </r>
       <r>   -2.0588    1.0000 </r>
       <r>   -2.0335    1.0000 </r>
       <r>   -2.0192    1.0000 </r>
       <r>   -1.9582    1.0000 </r>
       <r>   -1.9351    1.0000 </r>
       <r>   -1.8956    1.0000 </r>
       <r>   -1.8351    1.0000 </r>
       <r>   -1.8275    1.0000 </r>
       <r>   -1.8043    1.0000 </r>
       <r>   -1.7885    1.0000 </r>
       <r>   -1.7761    1.0000 </r>
       <r>   -1.7443    1.0000 </r>
       <r>   -1.7350    1.0000 </r>
       <r>   -1.7102    1.0000 </r>
       <r>   -1.6960    1.0000 </r>
       <r>   -1.6807    1.0000 </r>
       <r>   -1.6547    1.0000 </r>
       <r>   -1.6440    1.0000 </r>
       <r>   -1.6339    1.0000 </r>
       <r>   -1.6252    1.0000 </r>
       <r>   -1.5993    1.0000 </r>
       <r>   -1.5396    1.0000 </r>
       <r>   -1.5304    1.0000 </r>
       <r>   -1.5079    1.0000 </r>
       <r>   -1.4780    1.0000 </r>
       <r>   -1.4688    1.0000 </r>
       <r>   -1.4510    1.0000 </r>
       <r>   -1.4053    1.0000 </r>
       <r>   -1.4037    1.0000 </r>
       <r>   -1.3587    1.0000 </r>
       <r>   -1.3418    1.0000 </r>
       <r>   -1.3097    1.0000 </r>
       <r>   -1.2985    1.0000 </r>
       <r>   -1.2354    1.0000 </r>
       <r>   -1.1861    1.0000 </r>
       <r>   -1.1808    1.0000 </r>
       <r>   -1.1556    1.0000 </r>
       <r>   -1.1340    1.0000 </r>
       <r>   -1.1251    1.0000 </r>
       <r>   -1.0889    1.0000 </r>
       <r>   -1.0106    1.0000 </r>
       <r>   -0.9864    1.0000 </r>
       <r>   -0.9501    1.0000 </r>
       <r>   -0.9334    1.0000 </r>
       <r>   -0.9268    1.0000 </r>
       <r>   -0.9064    1.0000 </r>
       <r>   -0.8956    1.0000 </r>
       <r>   -0.8752    1.0000 </r>
       <r>   -0.8609    1.0000 </r>
       <r>   -0.8509    1.0000 </r>
       <r>   -0.8417    1.0000 </r>
       <r>   -0.8309    1.0000 </r>
       <r>   -0.8114    1.0000 </r>
       <r>   -0.7835    1.0000 </r>
       <r>   -0.7698    1.0000 </r>
       <r>   -0.7420    1.0000 </r>
       <r>   -0.7216    1.0000 </r>
       <r>   -0.7040    1.0000 </r>
       <r>   -0.6810    1.0000 </r>
       <r>   -0.6595    1.0000 </r>
       <r>   -0.6322    1.0000 </r>
       <r>   -0.5778    1.0000 </r>
       <r>   -0.5452    1.0000 </r>
       <r>   -0.5347    1.0000 </r>
       <r>   -0.4988    1.0000 </r>
       <r>   -0.4907    1.0000 </r>
       <r>   -0.4696    1.0000 </r>
       <r>   -0.4522    1.0000 </r>
       <r>   -0.4157    1.0000 </r>
       <r>   -0.3764    1.0000 </r>
       <r>   -0.3597    1.0000 </r>
       <r>   -0.3229    1.0000 </r>
       <r>   -0.2830    1.0000 </r>
       <r>   -0.2647    1.0000 </r>
       <r>   -0.2560    1.0000 </r>
       <r>   -0.2295    1.0000 </r>
       <r>   -0.2139    1.0000 </r>
       <r>   -0.1976    1.0000 </r>
       <r>   -0.1822    1.0000 </r>
       <r>   -0.1379    1.0000 </r>
       <r>   -0.1294    1.0000 </r>
       <r>   -0.0761    1.0000 </r>
       <r>   -0.0514    1.0000 </r>
       <r>   -0.0297    1.0000 </r>
       <r>    0.0006    1.0000 </r>
       <r>    0.0408    1.0000 </r>
       <r>    0.0657    1.0000 </r>
       <r>    0.0873    1.0000 </r>
       <r>    0.1023    1.0000 </r>
       <r>    0.1268    1.0000 </r>
       <r>    0.1350    1.0000 </r>
       <r>    0.1585    1.0000 </r>
       <r>    0.1742    1.0000 </r>
       <r>    0.1856    1.0000 </r>
       <r>    0.2091    1.0000 </r>
       <r>    0.2576    1.0000 </r>
       <r>    0.2826    1.0000 </r>
       <r>    0.3026    1.0001 </r>
       <r>    0.3150    1.0001 </r>
       <r>    0.3427    1.0004 </r>
       <r>    0.3597    1.0010 </r>
       <r>    0.3695    1.0015 </r>
       <r>    0.3780    1.0022 </r>
       <r>    0.3996    1.0050 </r>
       <r>    0.4111    1.0075 </r>
       <r>    0.4297    1.0132 </r>
       <r>    0.4476    1.0205 </r>
       <r>    0.4681    1.0298 </r>
       <r>    0.5083    1.0294 </r>
       <r>    0.5258    1.0065 </r>
       <r>    0.5350    0.9852 </r>
       <r>    0.5847    0.7303 </r>
       <r>    0.5961    0.6416 </r>
       <r>    0.6104    0.5230 </r>
       <r>    0.6209    0.4345 </r>
       <r>    0.6247    0.4028 </r>
       <r>    0.6450    0.2449 </r>
       <r>    0.6835    0.0387 </r>
       <r>    0.7153   -0.0272 </r>
       <r>    0.7625   -0.0279 </r>
       <r>    0.8864   -0.0004 </r>
       <r>    0.9606   -0.0000 </r>
       <r>    1.2733   -0.0000 </r>
       <r>    1.4703   -0.0000 </r>
       <r>    1.4801   -0.0000 </r>
       <r>    1.5220   -0.0000 </r>
       <r>    1.7104   -0.0000 </r>
       <r>    1.7472   -0.0000 </r>
       <r>    2.0032   -0.0000 </r>
       <r>    2.0423   -0.0000 </r>
       <r>    2.1748   -0.0000 </r>
       <r>    2.3711   -0.0000 </r>
       <r>    2.9560    0.0000 </r>
       <r>    3.1879    0.0000 </r>
       <r>    3.2663    0.0000 </r>
       <r>    3.3696    0.0000 </r>
       <r>    3.5301    0.0000 </r>
       <r>    3.5880    0.0000 </r>
       <r>    3.7678    0.0000 </r>
       <r>    4.1290    0.0000 </r>
       <r>    4.3045    0.0000 </r>
       <r>    4.6016    0.0000 </r>
       <r>    4.7094    0.0000 </r>
       <r>    4.8676    0.0000 </r>
       <r>    5.1334    0.0000 </r>
       <r>    5.2626    0.0000 </r>
       <r>    5.5427    0.0000 </r>
       <r>    5.5755    0.0000 </r>
       <r>    5.8158    0.0000 </r>
       <r>    5.9310    0.0000 </r>
      </set>
     </set>
    </set>
   </array>
  </eigenvalues>
  <separator name="orbital magnetization" >
   <v name="MAGDIPOLOUT">      0.00000000      0.00000000      0.00000000</v>
  </separator>
  <dos>
   <i name="efermi">      0.61310733 </i>
   <total>
    <array>
     <dimension dim="1">gridpoints</dimension>
     <dimension dim="2">spin</dimension>
     <field>energy</field>
     <field>total</field>
     <field>integrated</field>
     <set>
      <set comment="spin 1">
       <r>   -13.6319     0.0000     0.0000 </r>
       <r>   -13.5634     0.0000     0.0000 </r>
       <r>   -13.4948    -0.0000    -0.0000 </r>
       <r>   -13.4263    -0.0000    -0.0000 </r>
       <r>   -13.3577    -0.0000    -0.0000 </r>
       <r>   -13.2892    -0.0000    -0.0000 </r>
       <r>   -13.2206    -0.0000    -0.0000 </r>
       <r>   -13.1521    -0.0000    -0.0000 </r>
       <r>   -13.0836    -0.0000    -0.0000 </r>
       <r>   -13.0150    -0.0000    -0.0000 </r>
       <r>   -12.9465    -0.0012    -0.0001 </r>
       <r>   -12.8779    -0.0391    -0.0028 </r>
       <r>   -12.8094    -0.4096    -0.0308 </r>
       <r>   -12.7408    -0.4866    -0.0642 </r>
       <r>   -12.6723     6.3952     0.3742 </r>
       <r>   -12.6038    15.7843     1.4561 </r>
       <r>   -12.5352     8.5583     2.0427 </r>
       <r>   -12.4667    -0.0195     2.0413 </r>
       <r>   -12.3981    -0.5355     2.0046 </r>
       <r>   -12.3296    -0.0652     2.0002 </r>
       <r>   -12.2610    -0.0024     2.0000 </r>
       <r>   -12.1925    -0.0000     2.0000 </r>
       <r>   -12.1240    -0.0000     2.0000 </r>
       <r>   -12.0554    -0.0000     2.0000 </r>
       <r>   -11.9869    -0.0000     2.0000 </r>
       <r>   -11.9183     0.0000     2.0000 </r>
       <r>   -11.8498     0.0000     2.0000 </r>
       <r>   -11.7812     0.0000     2.0000 </r>
       <r>   -11.7127     0.0000     2.0000 </r>
       <r>   -11.6442     0.0000     2.0000 </r>
       <r>   -11.5756     0.0000     2.0000 </r>
       <r>   -11.5071     0.0000     2.0000 </r>
       <r>   -11.4385     0.0000     2.0000 </r>
       <r>   -11.3700     0.0000     2.0000 </r>
       <r>   -11.3014     0.0000     2.0000 </r>
       <r>   -11.2329     0.0000     2.0000 </r>
       <r>   -11.1644     0.0000     2.0000 </r>
       <r>   -11.0958     0.0000     2.0000 </r>
       <r>   -11.0273     0.0000     2.0000 </r>
       <r>   -10.9587     0.0000     2.0000 </r>
       <r>   -10.8902     0.0000     2.0000 </r>
       <r>   -10.8216     0.0000     2.0000 </r>
       <r>   -10.7531     0.0000     2.0000 </r>
       <r>   -10.6846     0.0000     2.0000 </r>
       <r>   -10.6160     0.0000     2.0000 </r>
       <r>   -10.5475     0.0000     2.0000 </r>
       <r>   -10.4789     0.0000     2.0000 </r>
       <r>   -10.4104     0.0000     2.0000 </r>
       <r>   -10.3418     0.0000     2.0000 </r>
       <r>   -10.2733     0.0000     2.0000 </r>
       <r>   -10.2048     0.0000     2.0000 </r>
       <r>   -10.1362     0.0000     2.0000 </r>
       <r>   -10.0677     0.0000     2.0000 </r>
       <r>    -9.9991     0.0000     2.0000 </r>
       <r>    -9.9306     0.0000     2.0000 </r>
       <r>    -9.8620     0.0000     2.0000 </r>
       <r>    -9.7935     0.0000     2.0000 </r>
       <r>    -9.7250     0.0000     2.0000 </r>
       <r>    -9.6564     0.0000     2.0000 </r>
       <r>    -9.5879     0.0000     2.0000 </r>
       <r>    -9.5193     0.0000     2.0000 </r>
       <r>    -9.4508     0.0000     2.0000 </r>
       <r>    -9.3822     0.0000     2.0000 </r>
       <r>    -9.3137     0.0000     2.0000 </r>
       <r>    -9.2452     0.0000     2.0000 </r>
       <r>    -9.1766     0.0000     2.0000 </r>
       <r>    -9.1081     0.0000     2.0000 </r>
       <r>    -9.0395     0.0000     2.0000 </r>
       <r>    -8.9710     0.0000     2.0000 </r>
       <r>    -8.9024     0.0000     2.0000 </r>
       <r>    -8.8339     0.0000     2.0000 </r>
       <r>    -8.7654     0.0000     2.0000 </r>
       <r>    -8.6968     0.0000     2.0000 </r>
       <r>    -8.6283     0.0000     2.0000 </r>
       <r>    -8.5597     0.0000     2.0000 </r>
       <r>    -8.4912     0.0000     2.0000 </r>
       <r>    -8.4226     0.0000     2.0000 </r>
       <r>    -8.3541     0.0000     2.0000 </r>
       <r>    -8.2856     0.0000     2.0000 </r>
       <r>    -8.2170     0.0000     2.0000 </r>
       <r>    -8.1485     0.0000     2.0000 </r>
       <r>    -8.0799     0.0000     2.0000 </r>
       <r>    -8.0114     0.0000     2.0000 </r>
       <r>    -7.9428     0.0000     2.0000 </r>
       <r>    -7.8743     0.0000     2.0000 </r>
       <r>    -7.8058     0.0000     2.0000 </r>
       <r>    -7.7372     0.0000     2.0000 </r>
       <r>    -7.6687     0.0000     2.0000 </r>
       <r>    -7.6001     0.0000     2.0000 </r>
       <r>    -7.5316     0.0000     2.0000 </r>
       <r>    -7.4630     0.0000     2.0000 </r>
       <r>    -7.3945     0.0000     2.0000 </r>
       <r>    -7.3260     0.0000     2.0000 </r>
       <r>    -7.2574     0.0000     2.0000 </r>
       <r>    -7.1889     0.0000     2.0000 </r>
       <r>    -7.1203     0.0000     2.0000 </r>
       <r>    -7.0518     0.0000     2.0000 </r>
       <r>    -6.9832     0.0000     2.0000 </r>
       <r>    -6.9147     0.0000     2.0000 </r>
       <r>    -6.8462     0.0000     2.0000 </r>
       <r>    -6.7776     0.0000     2.0000 </r>
       <r>    -6.7091     0.0000     2.0000 </r>
       <r>    -6.6405     0.0000     2.0000 </r>
       <r>    -6.5720     0.0000     2.0000 </r>
       <r>    -6.5034     0.0000     2.0000 </r>
       <r>    -6.4349     0.0000     2.0000 </r>
       <r>    -6.3664     0.0000     2.0000 </r>
       <r>    -6.2978     0.0000     2.0000 </r>
       <r>    -6.2293    -0.0000     2.0000 </r>
       <r>    -6.1607    -0.0000     2.0000 </r>
       <r>    -6.0922    -0.0000     2.0000 </r>
       <r>    -6.0236    -0.0000     2.0000 </r>
       <r>    -5.9551    -0.0000     2.0000 </r>
       <r>    -5.8866    -0.0000     2.0000 </r>
       <r>    -5.8180    -0.0000     2.0000 </r>
       <r>    -5.7495    -0.0001     2.0000 </r>
       <r>    -5.6809    -0.0043     1.9997 </r>
       <r>    -5.6124    -0.0965     1.9931 </r>
       <r>    -5.5438    -0.6210     1.9505 </r>
       <r>    -5.4753     0.5136     1.9857 </r>
       <r>    -5.4068     9.5212     2.6383 </r>
       <r>    -5.3382    15.4310     3.6960 </r>
       <r>    -5.2697    13.9857     4.6546 </r>
       <r>    -5.2011    14.7202     5.6636 </r>
       <r>    -5.1326     5.7949     6.0608 </r>
       <r>    -5.0640    -0.4484     6.0301 </r>
       <r>    -4.9955    -0.3971     6.0029 </r>
       <r>    -4.9270    -0.0404     6.0001 </r>
       <r>    -4.8584    -0.0013     6.0000 </r>
       <r>    -4.7899    -0.0007     6.0000 </r>
       <r>    -4.7213    -0.0259     5.9982 </r>
       <r>    -4.6528    -0.3218     5.9761 </r>
       <r>    -4.5842    -0.7459     5.9250 </r>
       <r>    -4.5157     4.1644     6.2104 </r>
       <r>    -4.4471    15.0238     7.2402 </r>
       <r>    -4.3786    19.2275     8.5581 </r>
       <r>    -4.3101    22.5481    10.1036 </r>
       <r>    -4.2415    20.4111    11.5027 </r>
       <r>    -4.1730     7.0949    11.9890 </r>
       <r>    -4.1044     3.2490    12.2117 </r>
       <r>    -4.0359    12.3404    13.0575 </r>
       <r>    -3.9673    25.8736    14.8310 </r>
       <r>    -3.8988    64.6725    19.2638 </r>
       <r>    -3.8303    81.1697    24.8274 </r>
       <r>    -3.7617    66.3174    29.3730 </r>
       <r>    -3.6932    70.0427    34.1740 </r>
       <r>    -3.6246    55.6737    37.9900 </r>
       <r>    -3.5561    36.5607    40.4960 </r>
       <r>    -3.4875    52.7861    44.1141 </r>
       <r>    -3.4190    66.6222    48.6806 </r>
       <r>    -3.3505    64.6041    53.1087 </r>
       <r>    -3.2819    81.2112    58.6752 </r>
       <r>    -3.2134    77.2383    63.9693 </r>
       <r>    -3.1448    60.7213    68.1313 </r>
       <r>    -3.0763    61.7147    72.3614 </r>
       <r>    -3.0077    83.3922    78.0774 </r>
       <r>    -2.9392    97.2453    84.7429 </r>
       <r>    -2.8707    71.0806    89.6149 </r>
       <r>    -2.8021    41.8049    92.4804 </r>
       <r>    -2.7336    36.7025    94.9961 </r>
       <r>    -2.6650    54.8121    98.7530 </r>
       <r>    -2.5965    68.3775   103.4398 </r>
       <r>    -2.5279    79.2552   108.8722 </r>
       <r>    -2.4594    77.0301   114.1521 </r>
       <r>    -2.3909    59.6153   118.2383 </r>
       <r>    -2.3223    50.5351   121.7021 </r>
       <r>    -2.2538    55.0169   125.4732 </r>
       <r>    -2.1852    77.9015   130.8128 </r>
       <r>    -2.1167    90.0161   136.9827 </r>
       <r>    -2.0481    76.5718   142.2312 </r>
       <r>    -1.9796    58.4692   146.2388 </r>
       <r>    -1.9111    50.1954   149.6794 </r>
       <r>    -1.8425    62.9364   153.9932 </r>
       <r>    -1.7740    89.8226   160.1499 </r>
       <r>    -1.7054   113.0815   167.9009 </r>
       <r>    -1.6369   120.8515   176.1844 </r>
       <r>    -1.5683    92.8431   182.5481 </r>
       <r>    -1.4998    77.6768   187.8723 </r>
       <r>    -1.4313    87.0793   193.8410 </r>
       <r>    -1.3627    82.6436   199.5056 </r>
       <r>    -1.2942    68.2454   204.1834 </r>
       <r>    -1.2256    53.9989   207.8846 </r>
       <r>    -1.1571    70.0714   212.6875 </r>
       <r>    -1.0885    74.4967   217.7937 </r>
       <r>    -1.0200    50.9958   221.2891 </r>
       <r>    -0.9515    70.8857   226.1479 </r>
       <r>    -0.8829   119.4972   234.3385 </r>
       <r>    -0.8144   134.3899   243.5500 </r>
       <r>    -0.7458   114.8876   251.4248 </r>
       <r>    -0.6773    90.1759   257.6057 </r>
       <r>    -0.6087    62.9773   261.9223 </r>
       <r>    -0.5402    62.5586   266.2103 </r>
       <r>    -0.4717    87.7525   272.2251 </r>
       <r>    -0.4031    82.7612   277.8978 </r>
       <r>    -0.3346    62.6963   282.1952 </r>
       <r>    -0.2660    78.0874   287.5475 </r>
       <r>    -0.1975   101.6342   294.5138 </r>
       <r>    -0.1289    82.8315   300.1913 </r>
       <r>    -0.0604    62.1535   304.4515 </r>
       <r>     0.0081    65.2110   308.9213 </r>
       <r>     0.0767    82.0162   314.5429 </r>
       <r>     0.1452   104.0830   321.6771 </r>
       <r>     0.2138    95.3445   328.2123 </r>
       <r>     0.2823    79.3856   333.6536 </r>
       <r>     0.3509   105.1556   340.8613 </r>
       <r>     0.4194   124.4106   349.3887 </r>
       <r>     0.4879    98.4942   356.1398 </r>
       <r>     0.5565    85.6953   362.0136 </r>
       <r>     0.6250   106.5775   369.3188 </r>
       <r>     0.6936    92.4002   375.6521 </r>
       <r>     0.7621    47.1091   378.8811 </r>
       <r>     0.8307    19.2110   380.1979 </r>
       <r>     0.8992    19.5685   381.5392 </r>
       <r>     0.9677    24.9276   383.2478 </r>
       <r>     1.0363    11.5978   384.0427 </r>
       <r>     1.1048    -0.3620   384.0179 </r>
       <r>     1.1734    -0.6145   383.9758 </r>
       <r>     1.2419     8.7938   384.5786 </r>
       <r>     1.3105    14.3064   385.5592 </r>
       <r>     1.3790     5.5111   385.9369 </r>
       <r>     1.4475    19.3486   387.2631 </r>
       <r>     1.5161    43.2578   390.2282 </r>
       <r>     1.5846    25.0765   391.9470 </r>
       <r>     1.6532     7.9972   392.4951 </r>
       <r>     1.7217    19.6547   393.8423 </r>
       <r>     1.7903    22.9378   395.4145 </r>
       <r>     1.8588     8.3540   395.9871 </r>
       <r>     1.9273     0.2316   396.0030 </r>
       <r>     1.9959    12.1728   396.8374 </r>
       <r>     2.0644    26.0427   398.6224 </r>
       <r>     2.1330    25.9122   400.3985 </r>
       <r>     2.2015    18.3695   401.6576 </r>
       <r>     2.2701     5.6105   402.0422 </r>
       <r>     2.3386     8.0532   402.5942 </r>
       <r>     2.4071    15.2497   403.6394 </r>
       <r>     2.4757     6.1934   404.0639 </r>
       <r>     2.5442    -0.4926   404.0302 </r>
       <r>     2.6128    -0.4012   404.0027 </r>
       <r>     2.6813    -0.0523   403.9991 </r>
       <r>     2.7499    -0.2195   403.9840 </r>
       <r>     2.8184    -0.7576   403.9321 </r>
       <r>     2.8869     2.9446   404.1340 </r>
       <r>     2.9555    13.8543   405.0836 </r>
       <r>     3.0240    11.9980   405.9059 </r>
       <r>     3.0926     1.0725   405.9795 </r>
       <r>     3.1611     5.3927   406.3491 </r>
       <r>     3.2297    20.1531   407.7304 </r>
       <r>     3.2982    24.2798   409.3947 </r>
       <r>     3.3667    19.8566   410.7557 </r>
       <r>     3.4353    17.4054   411.9487 </r>
       <r>     3.5038    17.7713   413.1668 </r>
       <r>     3.5724    23.1260   414.7519 </r>
       <r>     3.6409    15.8496   415.8383 </r>
       <r>     3.7095     5.2949   416.2012 </r>
       <r>     3.7780    12.6055   417.0653 </r>
       <r>     3.8465    12.5330   417.9243 </r>
       <r>     3.9151     1.8731   418.0527 </r>
       <r>     3.9836    -1.4687   417.9520 </r>
       <r>     4.0522     1.2405   418.0370 </r>
       <r>     4.1207    11.6125   418.8330 </r>
       <r>     4.1893    14.6421   419.8366 </r>
       <r>     4.2578    11.9317   420.6544 </r>
       <r>     4.3263    14.0992   421.6208 </r>
       <r>     4.3949     6.0528   422.0357 </r>
       <r>     4.4634    -1.0049   421.9668 </r>
       <r>     4.5320     1.3023   422.0561 </r>
       <r>     4.6005    12.2216   422.8938 </r>
       <r>     4.6691    16.9853   424.0580 </r>
       <r>     4.7376    15.3664   425.1113 </r>
       <r>     4.8061    15.4357   426.1693 </r>
       <r>     4.8747    16.7470   427.3172 </r>
       <r>     4.9432     9.8255   427.9907 </r>
       <r>     5.0118    -0.1126   427.9829 </r>
       <r>     5.0803     1.8980   428.1130 </r>
       <r>     5.1489    13.4839   429.0373 </r>
       <r>     5.2174    19.8396   430.3971 </r>
       <r>     5.2859    17.3146   431.5839 </r>
       <r>     5.3545     6.2238   432.0105 </r>
       <r>     5.4230     0.4692   432.0427 </r>
       <r>     5.4916     9.2205   432.6747 </r>
       <r>     5.5601    18.9639   433.9745 </r>
       <r>     5.6287    13.1246   434.8741 </r>
       <r>     5.6972     4.4622   435.1800 </r>
       <r>     5.7657     8.8173   435.7843 </r>
       <r>     5.8343    16.5477   436.9186 </r>
       <r>     5.9028    23.2196   438.5101 </r>
       <r>     5.9714    18.5807   439.7837 </r>
       <r>     6.0399     4.4284   440.0872 </r>
       <r>     6.1085    -0.8882   440.0263 </r>
       <r>     6.1770    -0.3545   440.0020 </r>
       <r>     6.2455    -0.0289   440.0001 </r>
       <r>     6.3141    -0.0008   440.0000 </r>
       <r>     6.3826    -0.0000   440.0000 </r>
       <r>     6.4512    -0.0000   440.0000 </r>
       <r>     6.5197    -0.0000   440.0000 </r>
       <r>     6.5883    -0.0000   440.0000 </r>
       <r>     6.6568     0.0000   440.0000 </r>
       <r>     6.7254     0.0000   440.0000 </r>
       <r>     6.7939     0.0000   440.0000 </r>
       <r>     6.8624     0.0000   440.0000 </r>
       <r>     6.9310     0.0000   440.0000 </r>
      </set>
     </set>
    </array>
   </total>
  </dos>
 </calculation>
 <structure name="finalpos" >
  <crystal>
   <varray name="basis" >
    <v>       8.35800215       0.00000000       0.00000000 </v>
    <v>       0.00000000       8.35800215       0.00000000 </v>
    <v>       0.00000000       0.00000000      19.91000000 </v>
   </varray>
   <i name="volume">   1390.83694200 </i>
   <varray name="rec_basis" >
    <v>       0.11964582       0.00000000       0.00000000 </v>
    <v>       0.00000000       0.11964582       0.00000000 </v>
    <v>       0.00000000       0.00000000       0.05022602 </v>
   </varray>
  </crystal>
  <varray name="positions" >
   <v>       0.16666667       0.16666667       0.00000000 </v>
   <v>       0.50000000       0.16666667       0.00000000 </v>
   <v>       0.83333333       0.16666667       0.00000000 </v>
   <v>       0.16666667       0.50000000       0.00000000 </v>
   <v>       0.50000000       0.50000000       0.00000000 </v>
   <v>       0.83333333       0.50000000       0.00000000 </v>
   <v>       0.16666667       0.83333333       0.00000000 </v>
   <v>       0.50000000       0.83333333       0.00000000 </v>
   <v>       0.83333333       0.83333333       0.00000000 </v>
   <v>       0.00000000       0.00000000       0.09894525 </v>
   <v>       0.33333333       0.00000000       0.09894525 </v>
   <v>       0.66666667       0.00000000       0.09894525 </v>
   <v>       0.00000000       0.33333333       0.09894525 </v>
   <v>       0.33333333       0.33333333       0.09894525 </v>
   <v>       0.66666667       0.33333333       0.09894525 </v>
   <v>       0.00000000       0.66666667       0.09894525 </v>
   <v>       0.33333333       0.66666667       0.09894525 </v>
   <v>       0.66666667       0.66666667       0.09894525 </v>
   <v>       0.16518371       0.16276285       0.19687655 </v>
   <v>       0.50358314       0.16281422       0.19660110 </v>
   <v>       0.83432008       0.16584211       0.19693441 </v>
   <v>       0.16817681       0.49766323       0.19858583 </v>
   <v>       0.49830272       0.49747968       0.19906451 </v>
   <v>       0.83408803       0.49773039       0.19707463 </v>
   <v>       0.16946845       0.82625387       0.19783242 </v>
   <v>       0.49903643       0.82656610       0.19825194 </v>
   <v>       0.83436056       0.83227757       0.19641753 </v>
   <v>       0.00120443       0.99410227       0.29577847 </v>
   <v>       0.33448290       0.98766908       0.29478097 </v>
   <v>       0.66951059       0.99737095       0.29511036 </v>
   <v>       0.99303448       0.32966320       0.29836520 </v>
   <v>       0.32515058       0.31792316       0.29374191 </v>
   <v>       0.67012422       0.32969228       0.30369339 </v>
   <v>       0.00038042       0.66384005       0.29511991 </v>
   <v>       0.33264541       0.65361843       0.30414203 </v>
   <v>       0.66899240       0.66454077       0.29463644 </v>
   <v>       0.79064682       0.35251832       0.36759666 </v>
   <v>       0.48882875       0.50143809       0.40187491 </v>
   <v>       0.36627069       0.39389094       0.39968751 </v>
  </varray>
  <varray name="selective"  type="logical" >
   <v type="logical" >  F  F  F </v>
   <v type="logical" >  F  F  F </v>
   <v type="logical" >  F  F  F </v>
   <v type="logical" >  F  F  F </v>
   <v type="logical" >  F  F  F </v>
   <v type="logical" >  F  F  F </v>
   <v type="logical" >  F  F  F </v>
   <v type="logical" >  F  F  F </v>
   <v type="logical" >  F  F  F </v>
   <v type="logical" >  F  F  F </v>
   <v type="logical" >  F  F  F </v>
   <v type="logical" >  F  F  F </v>
   <v type="logical" >  F  F  F </v>
   <v type="logical" >  F  F  F </v>
   <v type="logical" >  F  F  F </v>
   <v type="logical" >  F  F  F </v>
   <v type="logical" >  F  F  F </v>
   <v type="logical" >  F  F  F </v>
   <v type="logical" >  T  T  T </v>
   <v type="logical" >  T  T  T </v>
   <v type="logical" >  T  T  T </v>
   <v type="logical" >  T  T  T </v>
   <v type="logical" >  T  T  T </v>
   <v type="logical" >  T  T  T </v>
   <v type="logical" >  T  T  T </v>
   <v type="logical" >  T  T  T </v>
   <v type="logical" >  T  T  T </v>
   <v type="logical" >  T  T  T </v>
   <v type="logical" >  T  T  T </v>
   <v type="logical" >  T  T  T </v>
   <v type="logical" >  T  T  T </v>
   <v type="logical" >  T  T  T </v>
   <v type="logical" >  T  T  T </v>
   <v type="logical" >  T  T  T </v>
   <v type="logical" >  T  T  T </v>
   <v type="logical" >  T  T  T </v>
   <v type="logical" >  T  T  T </v>
   <v type="logical" >  T  T  T </v>
   <v type="logical" >  T  T  T </v>
  </varray>
  <nose>
   <v>      -3.00000000       0.00000000       0.00010000       0.00010000 </v>
  </nose>
 </structure>
</modeling>
