 running   48 mpi-ranks, with    1 threads/rank, on    1 nodes
 distrk:  each k-point on   48 cores,    1 groups
 distr:  one band on   24 cores,    2 groups
 vasp.6.4.3 19Mar24 (build Oct  2 2024 09:01:45) complex                         
 POSCAR found type information on POSCAR PdH S 
 POSCAR found :  3 types and      39 ions
 scaLAPACK will be used
 LDA part: xc-table for (Slater+PW92), standard interpolation
 POSCAR, INCAR and KPOINTS ok, starting setup
 FFT: planning ... GRIDC
 FFT: planning ... GRID_SOFT
 FFT: planning ... GRID
 WAVECAR not read
 WARNING: random wavefunctions but no delay for mixing, default for NELMDL
 entering main loop
       N       E                     dE             d eps       ncg     rms          rms(c)
DAV:   1     0.211018780847E+04    0.21102E+04   -0.14722E+05   880   0.119E+03
DAV:   2    -0.612854668420E+02   -0.21715E+04   -0.20328E+04   984   0.282E+02
DAV:   3    -0.190578165577E+03   -0.12929E+03   -0.11392E+03  1032   0.608E+01
DAV:   4    -0.195590706660E+03   -0.50125E+01   -0.48693E+01  1040   0.119E+01
DAV:   5    -0.195756793140E+03   -0.16609E+00   -0.16583E+00  1088   0.223E+00    0.376E+01
RMM:   6    -0.187915479329E+03    0.78413E+01   -0.26713E+01   885   0.123E+01    0.203E+01
RMM:   7    -0.212916186665E+03   -0.25001E+02   -0.18062E+01   969   0.774E+00    0.394E+01
RMM:   8    -0.194763068154E+03    0.18153E+02   -0.14130E+01   968   0.735E+00    0.227E+01
RMM:   9    -0.189494966669E+03    0.52681E+01   -0.73356E+00   918   0.541E+00    0.155E+01
RMM:  10    -0.189359883934E+03    0.13508E+00   -0.39154E+00   939   0.401E+00    0.159E+01
RMM:  11    -0.188310874403E+03    0.10490E+01   -0.22755E+00   934   0.320E+00    0.112E+01
RMM:  12    -0.186987972286E+03    0.13229E+01   -0.98359E-01   902   0.219E+00    0.435E+00
RMM:  13    -0.186838999392E+03    0.14897E+00   -0.26237E-01   905   0.104E+00    0.288E+00
RMM:  14    -0.186808953515E+03    0.30046E-01   -0.63455E-02   933   0.526E-01    0.223E+00
RMM:  15    -0.186806157621E+03    0.27959E-02   -0.43037E-02   931   0.432E-01    0.199E+00
RMM:  16    -0.186802429384E+03    0.37282E-02   -0.45802E-02   945   0.440E-01    0.187E+00
RMM:  17    -0.186786270715E+03    0.16159E-01   -0.33935E-02   946   0.389E-01    0.121E+00
RMM:  18    -0.186774183574E+03    0.12087E-01   -0.18556E-02   930   0.272E-01    0.610E-01
RMM:  19    -0.186771799621E+03    0.23840E-02   -0.65854E-03   939   0.167E-01    0.436E-01
RMM:  20    -0.186771616335E+03    0.18329E-03   -0.36943E-03   944   0.118E-01    0.424E-01
RMM:  21    -0.186770476851E+03    0.11395E-02   -0.18467E-03   950   0.891E-02    0.270E-01
RMM:  22    -0.186770027722E+03    0.44913E-03   -0.87529E-04   939   0.597E-02    0.173E-01
RMM:  23    -0.186769947104E+03    0.80617E-04   -0.64042E-04   893   0.492E-02
   1 F= -.18676995E+03 E0= -.18674373E+03  d E =-.786541E-01
