unknown system                          
           1
     8.358002    0.000000    0.000000
     0.000000    8.358002    0.000000
     0.000000    0.000000   19.910000
   Pd   H    S 
    36     2     1
Direct configuration=     1
   0.16666667  0.16666667  0.00000000
   0.50000000  0.16666667  0.00000000
   0.83333333  0.16666667  0.00000000
   0.16666667  0.50000000  0.00000000
   0.50000000  0.50000000  0.00000000
   0.83333333  0.50000000  0.00000000
   0.16666667  0.83333333  0.00000000
   0.50000000  0.83333333  0.00000000
   0.83333333  0.83333333  0.00000000
   0.00000000  0.00000000  0.09894525
   0.33333333  0.00000000  0.09894525
   0.66666667  0.00000000  0.09894525
   0.00000000  0.33333333  0.09894525
   0.33333333  0.33333333  0.09894525
   0.66666667  0.33333333  0.09894525
   0.00000000  0.66666667  0.09894525
   0.33333333  0.66666667  0.09894525
   0.66666667  0.66666667  0.09894525
   0.16518371  0.16276285  0.19687655
   0.50358314  0.16281422  0.19660110
   0.83432008  0.16584211  0.19693441
   0.16817681  0.49766323  0.19858583
   0.49830272  0.49747968  0.19906451
   0.83408803  0.49773039  0.19707463
   0.16946845  0.82625387  0.19783242
   0.49903643  0.82656610  0.19825194
   0.83436056  0.83227757  0.19641753
   0.00120443  0.99410227  0.29577847
   0.33448290  0.98766908  0.29478097
   0.66951059  0.99737095  0.29511036
   0.99303448  0.32966320  0.29836520
   0.32515058  0.31792316  0.29374191
   0.67012422  0.32969228  0.30369339
   0.00038042  0.66384005  0.29511991
   0.33264541  0.65361843  0.30414203
   0.66899240  0.66454077  0.29463644
   0.79064682  0.35251832  0.36759666
   0.48882875  0.50143809  0.40187491
   0.36627069  0.39389094  0.39968751
