  37  37   0   0
  0.4206308E+02  0.8803480E-09  0.8803480E-09  0.2318801E-08  0.5000000E-15
   1.0000000000000000E-004
  CAR 
 unknown system                          
      8.07604400    -18.37523575  301      0.44879790      1.00000000
    -18.375  0.0000E+00  0.0000E+00
    -18.287  0.0000E+00  0.0000E+00
    -18.199  0.0000E+00  0.0000E+00
    -18.111  0.0000E+00  0.0000E+00
    -18.023 -0.2361E-29 -0.2082E-30
    -17.934 -0.3133E-23 -0.2763E-24
    -17.846 -0.8664E-18 -0.7639E-19
    -17.758 -0.4848E-13 -0.4275E-14
    -17.670 -0.5661E-09 -0.4991E-10
    -17.582 -0.1346E-05 -0.1187E-06
    -17.494 -0.6317E-03 -0.5581E-04
    -17.405 -0.5453E-01 -0.4864E-02
    -17.317 -0.6265E+00 -0.6010E-01
    -17.229  0.2894E+01  0.1950E+00
    -17.141  0.1492E+02  0.1511E+01
    -17.053  0.6349E+01  0.2071E+01
    -16.965 -0.6646E+00  0.2012E+01
    -16.876 -0.1350E+00  0.2000E+01
    -16.788 -0.2574E-02  0.2000E+01
    -16.700 -0.8657E-05  0.2000E+01
    -16.612 -0.5677E-08  0.2000E+01
    -16.524 -0.7505E-12  0.2000E+01
    -16.435  0.0000E+00  0.2000E+01
    -16.347  0.0000E+00  0.2000E+01
    -16.259  0.0000E+00  0.2000E+01
    -16.171  0.0000E+00  0.2000E+01
    -16.083  0.0000E+00  0.2000E+01
    -15.995  0.0000E+00  0.2000E+01
    -15.906  0.0000E+00  0.2000E+01
    -15.818  0.0000E+00  0.2000E+01
    -15.730  0.0000E+00  0.2000E+01
    -15.642  0.0000E+00  0.2000E+01
    -15.554  0.0000E+00  0.2000E+01
    -15.466  0.0000E+00  0.2000E+01
    -15.377  0.0000E+00  0.2000E+01
    -15.289  0.0000E+00  0.2000E+01
    -15.201  0.0000E+00  0.2000E+01
    -15.113  0.0000E+00  0.2000E+01
    -15.025  0.0000E+00  0.2000E+01
    -14.937  0.0000E+00  0.2000E+01
    -14.848  0.0000E+00  0.2000E+01
    -14.760  0.0000E+00  0.2000E+01
    -14.672  0.0000E+00  0.2000E+01
    -14.584  0.0000E+00  0.2000E+01
    -14.496  0.0000E+00  0.2000E+01
    -14.408  0.0000E+00  0.2000E+01
    -14.319  0.0000E+00  0.2000E+01
    -14.231  0.0000E+00  0.2000E+01
    -14.143  0.0000E+00  0.2000E+01
    -14.055  0.0000E+00  0.2000E+01
    -13.967  0.0000E+00  0.2000E+01
    -13.879  0.0000E+00  0.2000E+01
    -13.790  0.0000E+00  0.2000E+01
    -13.702  0.0000E+00  0.2000E+01
    -13.614  0.0000E+00  0.2000E+01
    -13.526  0.0000E+00  0.2000E+01
    -13.438  0.0000E+00  0.2000E+01
    -13.349  0.0000E+00  0.2000E+01
    -13.261  0.0000E+00  0.2000E+01
    -13.173  0.0000E+00  0.2000E+01
    -13.085  0.0000E+00  0.2000E+01
    -12.997  0.0000E+00  0.2000E+01
    -12.909  0.0000E+00  0.2000E+01
    -12.820  0.0000E+00  0.2000E+01
    -12.732  0.0000E+00  0.2000E+01
    -12.644  0.0000E+00  0.2000E+01
    -12.556  0.0000E+00  0.2000E+01
    -12.468  0.0000E+00  0.2000E+01
    -12.380  0.0000E+00  0.2000E+01
    -12.291  0.0000E+00  0.2000E+01
    -12.203  0.0000E+00  0.2000E+01
    -12.115  0.0000E+00  0.2000E+01
    -12.027  0.0000E+00  0.2000E+01
    -11.939  0.0000E+00  0.2000E+01
    -11.851  0.0000E+00  0.2000E+01
    -11.762  0.0000E+00  0.2000E+01
    -11.674  0.0000E+00  0.2000E+01
    -11.586  0.0000E+00  0.2000E+01
    -11.498  0.0000E+00  0.2000E+01
    -11.410  0.0000E+00  0.2000E+01
    -11.322  0.0000E+00  0.2000E+01
    -11.233  0.0000E+00  0.2000E+01
    -11.145  0.0000E+00  0.2000E+01
    -11.057  0.0000E+00  0.2000E+01
    -10.969  0.0000E+00  0.2000E+01
    -10.881  0.0000E+00  0.2000E+01
    -10.793  0.0000E+00  0.2000E+01
    -10.704  0.0000E+00  0.2000E+01
    -10.616  0.0000E+00  0.2000E+01
    -10.528  0.0000E+00  0.2000E+01
    -10.440  0.0000E+00  0.2000E+01
    -10.352  0.0000E+00  0.2000E+01
    -10.264  0.0000E+00  0.2000E+01
    -10.175  0.0000E+00  0.2000E+01
    -10.087  0.0000E+00  0.2000E+01
     -9.999  0.0000E+00  0.2000E+01
     -9.911  0.0000E+00  0.2000E+01
     -9.823  0.0000E+00  0.2000E+01
     -9.734  0.0000E+00  0.2000E+01
     -9.646  0.0000E+00  0.2000E+01
     -9.558  0.0000E+00  0.2000E+01
     -9.470  0.0000E+00  0.2000E+01
     -9.382  0.0000E+00  0.2000E+01
     -9.294  0.0000E+00  0.2000E+01
     -9.205  0.0000E+00  0.2000E+01
     -9.117  0.0000E+00  0.2000E+01
     -9.029 -0.4232E-27  0.2000E+01
     -8.941 -0.2982E-21  0.2000E+01
     -8.853 -0.4373E-16  0.2000E+01
     -8.765 -0.1285E-11  0.2000E+01
     -8.676 -0.7925E-08  0.2000E+01
     -8.588 -0.9830E-05  0.2000E+01
     -8.500 -0.2361E-02  0.2000E+01
     -8.412 -0.9744E-01  0.1991E+01
     -8.324 -0.2634E+00  0.1968E+01
     -8.236  0.4098E+01  0.2329E+01
     -8.147  0.7050E+01  0.2951E+01
     -8.059  0.8097E+00  0.3022E+01
     -7.971 -0.5911E+00  0.2970E+01
     -7.883  0.1633E+01  0.3114E+01
     -7.795  0.7535E+01  0.3779E+01
     -7.707  0.2914E+01  0.4035E+01
     -7.618 -0.3407E+00  0.4005E+01
     -7.530 -0.6026E-01  0.4000E+01
     -7.442 -0.3557E-02  0.4000E+01
     -7.354 -0.1225E+00  0.3989E+01
     -7.266 -0.7292E+00  0.3925E+01
     -7.178  0.5215E+01  0.4385E+01
     -7.089  0.1980E+02  0.6130E+01
     -7.001  0.1013E+02  0.7023E+01
     -6.913  0.1827E+01  0.7184E+01
     -6.825  0.7139E+01  0.7813E+01
     -6.737  0.6814E+01  0.8414E+01
     -6.649  0.6358E+01  0.8975E+01
     -6.560  0.1746E+00  0.8990E+01
     -6.472  0.8274E-01  0.8997E+01
     -6.384  0.1102E+02  0.9969E+01
     -6.296  0.1073E+02  0.1091E+02
     -6.208  0.4823E+01  0.1134E+02
     -6.119  0.2327E+02  0.1339E+02
     -6.031  0.3278E+02  0.1628E+02
     -5.943  0.3472E+02  0.1934E+02
     -5.855  0.2755E+02  0.2177E+02
     -5.767  0.4667E+02  0.2589E+02
     -5.679  0.5109E+02  0.3039E+02
     -5.590  0.2875E+02  0.3293E+02
     -5.502  0.4290E+02  0.3671E+02
     -5.414  0.5007E+02  0.4112E+02
     -5.326  0.6296E+02  0.4667E+02
     -5.238  0.9680E+02  0.5521E+02
     -5.150  0.7815E+02  0.6210E+02
     -5.061  0.5183E+02  0.6667E+02
     -4.973  0.5470E+02  0.7149E+02
     -4.885  0.5264E+02  0.7613E+02
     -4.797  0.4229E+02  0.7986E+02
     -4.709  0.3934E+02  0.8333E+02
     -4.621  0.7094E+02  0.8959E+02
     -4.532  0.7062E+02  0.9581E+02
     -4.444  0.4888E+02  0.1001E+03
     -4.356  0.7680E+02  0.1069E+03
     -4.268  0.7739E+02  0.1137E+03
     -4.180  0.6578E+02  0.1195E+03
     -4.092  0.7697E+02  0.1263E+03
     -4.003  0.7357E+02  0.1328E+03
     -3.915  0.7041E+02  0.1390E+03
     -3.827  0.8051E+02  0.1461E+03
     -3.739  0.9486E+02  0.1545E+03
     -3.651  0.1037E+03  0.1636E+03
     -3.563  0.1023E+03  0.1726E+03
     -3.474  0.1103E+03  0.1823E+03
     -3.386  0.1207E+03  0.1930E+03
     -3.298  0.9425E+02  0.2013E+03
     -3.210  0.8187E+02  0.2085E+03
     -3.122  0.9107E+02  0.2166E+03
     -3.033  0.8173E+02  0.2238E+03
     -2.945  0.6174E+02  0.2292E+03
     -2.857  0.7226E+02  0.2356E+03
     -2.769  0.9571E+02  0.2440E+03
     -2.681  0.7799E+02  0.2509E+03
     -2.593  0.7020E+02  0.2571E+03
     -2.504  0.7356E+02  0.2636E+03
     -2.416  0.7763E+02  0.2704E+03
     -2.328  0.8064E+02  0.2775E+03
     -2.240  0.8115E+02  0.2847E+03
     -2.152  0.9556E+02  0.2931E+03
     -2.064  0.9504E+02  0.3015E+03
     -1.975  0.9501E+02  0.3099E+03
     -1.887  0.7707E+02  0.3167E+03
     -1.799  0.6554E+02  0.3224E+03
     -1.711  0.6867E+02  0.3285E+03
     -1.623  0.1083E+03  0.3380E+03
     -1.535  0.1404E+03  0.3504E+03
     -1.446  0.1173E+03  0.3608E+03
     -1.358  0.8767E+02  0.3685E+03
     -1.270  0.6497E+02  0.3742E+03
     -1.182  0.3573E+02  0.3774E+03
     -1.094  0.1525E+02  0.3787E+03
     -1.006  0.1869E+02  0.3804E+03
     -0.917  0.2719E+02  0.3828E+03
     -0.829  0.2779E+02  0.3852E+03
     -0.741  0.2594E+02  0.3875E+03
     -0.653  0.1659E+02  0.3890E+03
     -0.565  0.1032E+02  0.3899E+03
     -0.477  0.2119E+02  0.3917E+03
     -0.388  0.1841E+02  0.3934E+03
     -0.300  0.1018E+02  0.3943E+03
     -0.212  0.1414E+02  0.3955E+03
     -0.124  0.6096E+01  0.3960E+03
     -0.036  0.4891E+01  0.3965E+03
      0.052  0.1504E+02  0.3978E+03
      0.141  0.1269E+02  0.3989E+03
      0.229  0.8565E+00  0.3990E+03
      0.317  0.3950E+01  0.3993E+03
      0.405  0.1719E+02  0.4009E+03
      0.493  0.2590E+02  0.4031E+03
      0.582  0.1048E+02  0.4041E+03
      0.670 -0.5945E+00  0.4040E+03
      0.758  0.7973E+01  0.4047E+03
      0.846  0.1798E+02  0.4063E+03
      0.934  0.1828E+02  0.4079E+03
      1.022  0.1929E+02  0.4096E+03
      1.111  0.1042E+02  0.4105E+03
      1.199  0.5655E+01  0.4110E+03
      1.287  0.1288E+02  0.4122E+03
      1.375  0.1560E+02  0.4135E+03
      1.463  0.1015E+02  0.4144E+03
      1.551  0.6307E+01  0.4150E+03
      1.640  0.5679E+01  0.4155E+03
      1.728  0.6710E+01  0.4161E+03
      1.816  0.1069E+02  0.4170E+03
      1.904  0.1962E+02  0.4188E+03
      1.992  0.1311E+02  0.4199E+03
      2.080  0.2657E+01  0.4201E+03
      2.169  0.1981E+02  0.4219E+03
      2.257  0.2173E+02  0.4238E+03
      2.345  0.2833E+01  0.4241E+03
      2.433  0.8748E+01  0.4248E+03
      2.521  0.1210E+02  0.4259E+03
      2.609  0.1815E+01  0.4261E+03
      2.698  0.9754E+01  0.4269E+03
      2.786  0.1543E+02  0.4283E+03
      2.874  0.1929E+02  0.4300E+03
      2.962  0.2764E+02  0.4324E+03
      3.050  0.1306E+02  0.4336E+03
      3.138  0.9885E+01  0.4344E+03
      3.227  0.1105E+02  0.4354E+03
      3.315  0.5054E+01  0.4359E+03
      3.403  0.3099E+01  0.4361E+03
      3.491  0.1359E+02  0.4373E+03
      3.579  0.1941E+02  0.4390E+03
      3.667  0.1775E+02  0.4406E+03
      3.756  0.4889E+01  0.4410E+03
      3.844 -0.9178E+00  0.4410E+03
      3.932  0.7311E+01  0.4416E+03
      4.020  0.2287E+02  0.4436E+03
      4.108  0.2736E+02  0.4460E+03
      4.197  0.1029E+02  0.4469E+03
      4.285  0.4075E+01  0.4473E+03
      4.373  0.1366E+02  0.4485E+03
      4.461  0.9642E+01  0.4493E+03
      4.549  0.1668E+02  0.4508E+03
      4.637  0.1217E+02  0.4519E+03
      4.726  0.6096E+01  0.4524E+03
      4.814  0.9216E+01  0.4532E+03
      4.902  0.1923E+02  0.4549E+03
      4.990  0.1223E+02  0.4560E+03
      5.078  0.4207E+01  0.4564E+03
      5.166  0.1105E+02  0.4574E+03
      5.255  0.1898E+02  0.4590E+03
      5.343  0.1803E+02  0.4606E+03
      5.431  0.1071E+02  0.4616E+03
      5.519  0.1326E+02  0.4627E+03
      5.607  0.1641E+02  0.4642E+03
      5.695  0.1578E+02  0.4656E+03
      5.784  0.1842E+02  0.4672E+03
      5.872  0.2411E+02  0.4693E+03
      5.960  0.3361E+02  0.4723E+03
      6.048  0.2596E+02  0.4746E+03
      6.136  0.2203E+02  0.4765E+03
      6.224  0.1811E+02  0.4781E+03
      6.313  0.3268E+01  0.4784E+03
      6.401  0.1302E+01  0.4785E+03
      6.489  0.2809E+01  0.4788E+03
      6.577  0.5184E+01  0.4792E+03
      6.665  0.1495E+02  0.4805E+03
      6.753  0.2137E+02  0.4824E+03
      6.842  0.1380E+02  0.4836E+03
      6.930  0.4152E+01  0.4840E+03
      7.018  0.6080E-01  0.4840E+03
      7.106 -0.1595E+00  0.4840E+03
      7.194 -0.1022E-01  0.4840E+03
      7.283 -0.1104E-03  0.4840E+03
      7.371 -0.2302E-06  0.4840E+03
      7.459 -0.9621E-10  0.4840E+03
      7.547 -0.8394E-14  0.4840E+03
      7.635  0.0000E+00  0.4840E+03
      7.723  0.0000E+00  0.4840E+03
      7.812  0.0000E+00  0.4840E+03
      7.900  0.0000E+00  0.4840E+03
      7.988  0.0000E+00  0.4840E+03
      8.076  0.0000E+00  0.4840E+03
