 vasp.6.4.3 19Mar24 (build Oct  2 2024 09:01:45) complex                         
 executed on             LinuxGNU date 2025.02.17  19:34:24
 running   48 mpi-ranks, with    1 threads/rank, on    1 nodes
 distrk:  each k-point on   48 cores,    1 groups
 distr:  one band on NCORE=  24 cores,    2 groups


--------------------------------------------------------------------------------------------------------


 INCAR:
   ENCUT = 400.000000
   SIGMA = 0.100000
   EDIFF = 1.00e-04
   EDIFFG = -3.00e-02
   ALGO = Fast
   GGA = PE
   PREC = Accurate
   IBRION = -1
   ICHARG = 2
   IDIPOL = 3
   ISMEAR = 1
   ISYM = 0
   NPAR = 2
   LCHARG = .FALSE.
   LDIPOL = .TRUE.
   LWAVE = .FALSE.
   LREAL = Auto

 POTCAR:    PAW_PBE Au 04Oct2007                  
 POTCAR:    PAW_PBE O 08Apr2002                   
 POTCAR:    PAW_PBE Au 04Oct2007                  
   SHA256 =  d0044ae04e2bdce24051b198fc5c053d722a5bc6fe3c3b100514a13fc5d2db88 Au/POTCAR             
   COPYR  = (c) Copyright 04Oct2007 Georg Kresse                                                    
   COPYR  = This file is part of the software VASP. Any use, copying, and all other rights are regul
   COPYR  = If you do not have a valid VASP license, you may not use, copy or distribute this file. 
   VRHFIN =Au: s1d10                                                                                
   LEXCH  = PE                                                                                      
   EATOM  =   926.0867 eV,   68.0654 Ry                                                             
                                                                                                    
   TITEL  = PAW_PBE Au 04Oct2007                                                                    
   LULTRA =        F    use ultrasoft PP ?                                                          
   IUNSCR =        1    unscreen: 0-lin 1-nonlin 2-no                                               
   RPACOR =    2.330    partial core radius                                                         
   POMASS =  196.966; ZVAL   =   11.000    mass and valenz                                          
   RCORE  =    2.500    outmost cutoff radius                                                       
   RWIGS  =    2.840; RWIGS  =    1.503    wigner-seitz radius (au A)                               
   ENMAX  =  229.943; ENMIN  =  172.457 eV                                                          
   ICORE  =        3    local potential                                                             
   LCOR   =        T    correct aug charges                                                         
   LPAW   =        T    paw PP                                                                      
   EAUG   =  356.670                                                                                
   DEXC   =    0.000                                                                                
   RMAX   =    2.562    core radius for proj-oper                                                   
   RAUG   =    1.300    factor for augmentation sphere                                              
   RDEP   =    2.598    radius for radial grids                                                     
   RDEPT  =    2.193    core radius for aug-charge                                                  
                                                                                                    
   Atomic configuration                                                                             
   16 entries                                                                                       
     n  l   j            E        occ.                                                              
     1  0  0.50    -80748.5001   2.0000                                                             
     2  0  0.50    -14244.7466   2.0000                                                             
     2  1  1.50    -12310.9591   6.0000                                                             
     3  0  0.50     -3362.1768   2.0000                                                             
     3  1  1.50     -2801.5463   6.0000                                                             
     3  2  2.50     -2203.8206  10.0000                                                             
     4  0  0.50      -729.8168   2.0000                                                             
     4  1  1.50      -546.0527   6.0000                                                             
     4  2  2.50      -325.7302  10.0000                                                             
     4  3  3.50       -81.1472  14.0000                                                             
     5  0  0.50      -108.3201   2.0000                                                             
     5  1  1.50       -59.7479   6.0000                                                             
     5  2  2.50        -6.8783  10.0000                                                             
     6  0  0.50        -5.7602   1.0000                                                             
     6  1  1.50        -6.8029   0.0000                                                             
     5  3  2.50        -1.3606   0.0000                                                             
   Description                                                                                      
     l       E           TYP  RCUT    TYP  RCUT                                                     
     2     -6.8782861     23  2.500                                                                 
     2     -8.2388687     23  2.500                                                                 
     0     -5.7601759     23  2.500                                                                 
     0     -0.8493231     23  2.500                                                                 
     1     -2.7211652     23  2.500                                                                 
     1     27.2116520     23  2.500                                                                 
     3     -1.3605826     23  2.500                                                                 
  local pseudopotential read in
  partial core-charges read in
  partial kinetic energy density read in
  atomic valenz-charges read in
  non local Contribution for L=           2  read in
    real space projection operators read in
  non local Contribution for L=           2  read in
    real space projection operators read in
  non local Contribution for L=           0  read in
    real space projection operators read in
  non local Contribution for L=           0  read in
    real space projection operators read in
  non local Contribution for L=           1  read in
    real space projection operators read in
  non local Contribution for L=           1  read in
    real space projection operators read in
    PAW grid and wavefunctions read in

   number of l-projection  operators is LMAX  =           6
   number of lm-projection operators is LMMAX =          18

 POTCAR:    PAW_PBE O 08Apr2002                   
   SHA256 =  818f92134a0a090dccd8ba1447fa70422a3b330e708bb4f08108d8ae51209ddf O/POTCAR              
   COPYR  = (c) Copyright 08Apr2002 Georg Kresse                                                    
   COPYR  = This file is part of the software VASP. Any use, copying, and all other rights are regul
   COPYR  = If you do not have a valid VASP license, you may not use, copy or distribute this file. 
   VRHFIN =O: s2p4                                                                                  
   LEXCH  = PE                                                                                      
   EATOM  =   432.3788 eV,   31.7789 Ry                                                             
                                                                                                    
   TITEL  = PAW_PBE O 08Apr2002                                                                     
   LULTRA =        F    use ultrasoft PP ?                                                          
   IUNSCR =        1    unscreen: 0-lin 1-nonlin 2-no                                               
   RPACOR =    1.200    partial core radius                                                         
   POMASS =   16.000; ZVAL   =    6.000    mass and valenz                                          
   RCORE  =    1.520    outmost cutoff radius                                                       
   RWIGS  =    1.550; RWIGS  =    0.820    wigner-seitz radius (au A)                               
   ENMAX  =  400.000; ENMIN  =  300.000 eV                                                          
   ICORE  =        2    local potential                                                             
   LCOR   =        T    correct aug charges                                                         
   LPAW   =        T    paw PP                                                                      
   EAUG   =  605.392                                                                                
   DEXC   =    0.000                                                                                
   RMAX   =    1.553    core radius for proj-oper                                                   
   RAUG   =    1.300    factor for augmentation sphere                                              
   RDEP   =    1.550    radius for radial grids                                                     
   RDEPT  =    1.329    core radius for aug-charge                                                  
                                                                                                    
   Atomic configuration                                                                             
    4 entries                                                                                       
     n  l   j            E        occ.                                                              
     1  0  0.50      -514.6923   2.0000                                                             
     2  0  0.50       -23.9615   2.0000                                                             
     2  1  0.50        -9.0305   4.0000                                                             
     3  2  1.50        -9.5241   0.0000                                                             
   Description                                                                                      
     l       E           TYP  RCUT    TYP  RCUT                                                     
     0    -23.9615318     23  1.200                                                                 
     0     -9.5240782     23  1.200                                                                 
     1     -9.0304911     23  1.520                                                                 
     1      8.1634956     23  1.520                                                                 
     2     -9.5240782      7  1.500                                                                 
  local pseudopotential read in
  partial core-charges read in
  partial kinetic energy density read in
  kinetic energy density of atom read in
  atomic valenz-charges read in
  non local Contribution for L=           0  read in
    real space projection operators read in
  non local Contribution for L=           0  read in
    real space projection operators read in
  non local Contribution for L=           1  read in
    real space projection operators read in
  non local Contribution for L=           1  read in
    real space projection operators read in
    PAW grid and wavefunctions read in

   number of l-projection  operators is LMAX  =           4
   number of lm-projection operators is LMMAX =           8

 Optimization of the real space projectors (new method)

 maximal supplied QI-value         = 15.12
 optimisation between [QCUT,QGAM] = [ 10.13, 20.41] = [ 28.73,116.64] Ry 
 Optimized for a Real-space Cutoff    1.55 Angstroem

   l    n(q)    QCUT    max X(q) W(low)/X(q) W(high)/X(q)  e(spline) 
   2      9    10.129    60.898    0.14E-03    0.27E-03    0.16E-06
   2      9    10.129    58.894    0.14E-03    0.27E-03    0.17E-06
   0      9    10.129   109.617    0.51E-04    0.23E-04    0.60E-07
   0      9    10.129    75.026    0.50E-04    0.22E-04    0.58E-07
   1      9    10.129    16.344    0.46E-04    0.82E-04    0.13E-06
   1      9    10.129    10.160    0.41E-04    0.64E-04    0.11E-06
 Optimization of the real space projectors (new method)

 maximal supplied QI-value         = 24.76
 optimisation between [QCUT,QGAM] = [ 10.15, 20.30] = [ 28.85,115.39] Ry 
 Optimized for a Real-space Cutoff    1.51 Angstroem

   l    n(q)    QCUT    max X(q) W(low)/X(q) W(high)/X(q)  e(spline) 
   0      9    10.150    20.381    0.17E-03    0.18E-03    0.41E-06
   0      9    10.150    15.268    0.18E-03    0.20E-03    0.43E-06
   1      9    10.150     5.964    0.16E-03    0.20E-03    0.36E-06
   1      9    10.150     5.382    0.13E-03    0.16E-03    0.33E-06
  PAW_PBE Au 04Oct2007                  :
 energy of atom  1       EATOM= -926.0867
 kinetic energy error for atom=    0.0062 (will be added to EATOM!!)
  PAW_PBE O 08Apr2002                   :
 energy of atom  2       EATOM= -432.3788
 kinetic energy error for atom=    0.1156 (will be added to EATOM!!)


 POSCAR: Au O
  positions in cartesian coordinates
  No initial velocities read in


 exchange-correlation table for PE
   RHO(1)=    0.500       N(1)  =     2000
   RHO(2)=  100.500       N(2)  =     4000



--------------------------------------------------------------------------------------------------------


 ion  position               nearest neighbor table
   1  0.000  0.000  0.000-  12 2.93  16 2.93  10 2.93   8 2.93   6 2.93   4 2.93   7 2.93   3 2.93
                             2 2.93
   2  0.333  0.000  0.000-  10 2.93  11 2.93  17 2.93   3 2.93   9 2.93   4 2.93   5 2.93   8 2.93
                             1 2.93
   3  0.667  0.000  0.000-  11 2.93  18 2.93   2 2.93  12 2.93   5 2.93   7 2.93   9 2.93   6 2.93
                             1 2.93
   4  0.000  0.333  0.000-  10 2.93  13 2.93  15 2.93   7 2.93   9 2.93   2 2.93   1 2.93   6 2.93
                             5 2.93
   5  0.333  0.333  0.000-  14 2.93  11 2.93  13 2.93   8 2.93   6 2.93   3 2.93   7 2.93   2 2.93
                             4 2.93
   6  0.667  0.333  0.000-  12 2.93  14 2.93  15 2.93   9 2.93   8 2.93   5 2.93   1 2.93   3 2.93
                             4 2.93
   7  0.000  0.667  0.000-  13 2.93  18 2.93   4 2.93  16 2.93   5 2.93   3 2.93   1 2.93   9 2.93
                             8 2.93
   8  0.333  0.667  0.000-  14 2.93  16 2.93  17 2.93   6 2.93   5 2.93   9 2.93   1 2.93   2 2.93
                             7 2.93
   9  0.667  0.667  0.000-  15 2.93  17 2.93   6 2.93   8 2.93  18 2.93   4 2.93   2 2.93   3 2.93
                             7 2.93
  10  0.111  0.111  0.103-   2 2.93   4 2.93  13 2.93  11 2.93   1 2.93  15 2.93  17 2.93  16 2.93
                            12 2.93  26 2.94  19 2.95  20 2.95
  11  0.444  0.111  0.103-  21 2.90  27 2.91   5 2.93   2 2.93   3 2.93  13 2.93  14 2.93  10 2.93
                            18 2.93  17 2.93  12 2.93  20 2.97
  12  0.778  0.111  0.103-  21 2.90  25 2.91   1 2.93   6 2.93  15 2.93   3 2.93  14 2.93  16 2.93
                            18 2.93  10 2.93  11 2.93  19 2.97
  13  0.111  0.444  0.103-  23 2.90  22 2.92   7 2.93   5 2.93   4 2.93  10 2.93  11 2.93  14 2.93
                            18 2.93  16 2.93  15 2.93  20 2.96
  14  0.444  0.444  0.103-  24 2.90  21 2.91  23 2.92   5 2.93   8 2.93   6 2.93  11 2.93  13 2.93
                            16 2.93  12 2.93  17 2.93  15 2.93
  15  0.778  0.444  0.103-  24 2.90  22 2.93   9 2.93   6 2.93   4 2.93  12 2.93  10 2.93  17 2.93
                            18 2.93  13 2.93  14 2.93  19 2.95
  16  0.111  0.778  0.103-  23 2.90  25 2.92   1 2.93   8 2.93  17 2.93   7 2.93  14 2.93  12 2.93
                            10 2.93  13 2.93  18 2.93  26 2.97
  17  0.444  0.778  0.103-  24 2.89  27 2.93   9 2.93   2 2.93   8 2.93  16 2.93  10 2.93  15 2.93
                            11 2.93  14 2.93  18 2.93  26 2.96
  18  0.778  0.778  0.103-   3 2.93   7 2.93   9 2.93  11 2.93  13 2.93  12 2.93  15 2.93  16 2.93
                            17 2.93  22 2.94  27 2.95  25 2.95
  19  0.891  0.223  0.208-  33 2.90  20 2.90  25 2.91  26 2.91  22 2.91  24 2.95  10 2.95  15 2.95
                            21 2.96  12 2.97  28 2.99  31 3.05
  20  0.220  0.223  0.208-  19 2.90  26 2.90  22 2.91  27 2.91  32 2.92  23 2.95  21 2.95  10 2.95
                            13 2.96  11 2.97  29 3.01  31 3.02
  21  0.556  0.221  0.205-  11 2.90  12 2.90  32 2.91  27 2.91  14 2.91  25 2.92  33 2.94  30 2.94
                            20 2.95  24 2.95  19 2.96  23 2.96
  22  0.890  0.554  0.206-  31 2.88  36 2.90  20 2.91  23 2.91  19 2.91  13 2.92  15 2.93  18 2.94
                            24 2.94  27 2.98  25 2.98  34 2.99
  23  0.219  0.558  0.205-  16 2.90  32 2.90  13 2.90  22 2.91  14 2.92  25 2.92  35 2.94  20 2.95
                            34 2.95  24 2.95  26 2.96  21 2.96
  24  0.555  0.557  0.205-  17 2.89  15 2.90  14 2.90  33 2.92  35 2.93  22 2.94  27 2.94  19 2.95
                            36 2.95  26 2.95  23 2.95  21 2.95
  25  0.891  0.893  0.206-  26 2.91  19 2.91  12 2.91  34 2.91  30 2.91  16 2.92  23 2.92  21 2.92
                            18 2.95  22 2.98  27 2.98  28 3.01
  26  0.221  0.893  0.208-  35 2.90  20 2.90  25 2.91  19 2.91  27 2.91  10 2.94  24 2.95  23 2.96
                            17 2.96  16 2.97  28 2.99  29 3.05
  27  0.552  0.893  0.206-  29 2.88  36 2.90  21 2.91  26 2.91  20 2.91  11 2.91  17 2.93  24 2.94
                            18 2.95  22 2.98  25 2.98  30 2.99
  28  1.000  0.002  0.314-  37 2.27  30 2.86  34 2.86  35 2.96  33 2.96  19 2.99  26 2.99  25 3.01
                            29 3.13  31 3.13
  29  0.360  0.992  0.313-  37 2.12  36 2.77  30 2.82  27 2.88  32 2.97  35 2.98  20 3.01  26 3.05
                            28 3.13  31 3.26
  30  0.675  0.003  0.310-  29 2.82  28 2.86  34 2.86  33 2.90  25 2.91  21 2.94  36 2.96  32 2.97
                            27 2.99
  31  0.989  0.363  0.313-  37 2.12  36 2.77  34 2.82  22 2.88  32 2.97  33 2.98  20 3.02  19 3.05
                            28 3.13  29 3.26
  32  0.337  0.340  0.308-  33 2.87  35 2.87  23 2.90  21 2.91  20 2.92  29 2.97  34 2.97  31 2.97
                            30 2.97
  33  0.664  0.338  0.308-  32 2.87  35 2.89  19 2.90  30 2.90  24 2.92  21 2.94  36 2.95  28 2.96
                            31 2.98
  34  0.000  0.678  0.310-  31 2.82  28 2.86  30 2.86  35 2.90  25 2.91  23 2.95  36 2.96  32 2.97
                            22 2.99
  35  0.335  0.667  0.308-  32 2.87  33 2.89  26 2.90  34 2.90  24 2.93  36 2.94  23 2.94  28 2.96
                            29 2.98
  36  0.668  0.671  0.308-  31 2.77  29 2.77  27 2.90  22 2.90  35 2.94  33 2.95  24 2.95  30 2.96
                            34 2.96
  37  0.129  0.132  0.363-  31 2.12  29 2.12  28 2.27


IMPORTANT INFORMATION: All symmetrisations will be switched off!
NOSYMM: (Re-)initialisation of all symmetry stuff for point group C_1.


----------------------------------------------------------------------------------------

                                     Primitive cell                                     

  volume of cell :    1556.3341

  direct lattice vectors                    reciprocal lattice vectors
     8.803479426  0.000000000  0.000000000     0.113591451 -0.065582055  0.000000000
     4.401739713  7.624036824  0.000000000     0.000000000  0.131164109  0.000000000
     0.000000000  0.000000000 23.188010851     0.000000000  0.000000000  0.043125735

  length of vectors
     8.803479426  8.803479426 23.188010851     0.131164109  0.131164109  0.043125735

  position of ions in fractional coordinates (direct lattice)
     0.000000000  0.000000000  0.000000000
     0.333333333  0.000000000  0.000000000
     0.666666667  0.000000000  0.000000000
     0.000000000  0.333333333  0.000000000
     0.333333333  0.333333333  0.000000000
     0.666666667  0.333333333  0.000000000
     0.000000000  0.666666667  0.000000000
     0.333333333  0.666666667  0.000000000
     0.666666667  0.666666667  0.000000000
     0.111111111  0.111111111  0.103329416
     0.444444444  0.111111111  0.103329416
     0.777777778  0.111111111  0.103329416
     0.111111111  0.444444444  0.103329416
     0.444444444  0.444444444  0.103329416
     0.777777778  0.444444444  0.103329416
     0.111111111  0.777777778  0.103329416
     0.444444444  0.777777778  0.103329416
     0.777777778  0.777777778  0.103329416
     0.890646500  0.222990212  0.207849950
     0.220473377  0.222696914  0.208008687
     0.556003251  0.221090487  0.205152140
     0.890404127  0.554124171  0.206462112
     0.219422747  0.557709169  0.205138450
     0.555190651  0.556916633  0.204812989
     0.891000538  0.892510063  0.206166566
     0.221198811  0.892556535  0.207817676
     0.552070202  0.892525654  0.206431413
     0.999663418  0.002297823  0.314250522
     0.359859655  0.992348347  0.313292106
     0.675004189  0.002910118  0.309857119
     0.988849672  0.362923592  0.313442232
     0.336964959  0.339902314  0.307661151
     0.663820415  0.338206060  0.308291833
     0.000387837  0.677542438  0.309908253
     0.335432071  0.666791468  0.308249333
     0.667675956  0.670826329  0.307881245
     0.128783176  0.131707495  0.362994849

  ion indices of the primitive-cell ions
   primitive index   ion index
                 1           1
                 2           2
                 3           3
                 4           4
                 5           5
                 6           6
                 7           7
                 8           8
                 9           9
                10          10
                11          11
                12          12
                13          13
                14          14
                15          15
                16          16
                17          17
                18          18
                19          19
                20          20
                21          21
                22          22
                23          23
                24          24
                25          25
                26          26
                27          27
                28          28
                29          29
                30          30
                31          31
                32          32
                33          33
                34          34
                35          35
                36          36
                37          37

----------------------------------------------------------------------------------------



 KPOINTS: KPOINTS created by Atomic Simulation Env

Automatic generation of k-mesh.
 Grid dimensions read from file:
 generate k-points for:    2    2    1

 Generating k-lattice:

  Cartesian coordinates                     Fractional coordinates (reciprocal lattice)
     0.056795725 -0.032791027  0.000000000     0.500000000  0.000000000  0.000000000
     0.000000000  0.065582055  0.000000000     0.000000000  0.500000000  0.000000000
     0.000000000  0.000000000  0.043125735     0.000000000  0.000000000  1.000000000

  Length of vectors
     0.065582055  0.065582055  0.043125735

  Shift w.r.t. Gamma in fractional coordinates (k-lattice)
     0.500000000  0.500000000  0.000000000

 
 Subroutine IBZKPT returns following result:
 ===========================================
 
 Found      6 irreducible k-points:
 
 Following reciprocal coordinates:
            Coordinates               Weight
  0.250000  0.250000  0.000000      2.000000
  0.000000  0.250000  0.000000      2.000000
 -0.250000  0.000000  0.000000      2.000000
 -0.250000  0.250000  0.000000      2.000000
  0.500000 -0.250000  0.000000      2.000000
 -0.250000  0.500000  0.000000      2.000000
 
 Following cartesian coordinates:
            Coordinates               Weight
  0.028398  0.016396  0.000000      2.000000
  0.000000  0.032791  0.000000      2.000000
 -0.028398  0.016396  0.000000      2.000000
 -0.028398  0.049187  0.000000      2.000000
  0.056796 -0.065582  0.000000      2.000000
 -0.028398  0.081978  0.000000      2.000000
 


--------------------------------------------------------------------------------------------------------




 Dimension of arrays:
   k-points           NKPTS =      6   k-points in BZ     NKDIM =      6   number of bands    NBANDS=    242
   number of dos      NEDOS =    301   number of ions     NIONS =     37
   non local maximal  LDIM  =      6   non local SUM 2l+1 LMDIM =     18
   total plane-waves  NPLWV = 576000
   max r-space proj   IRMAX =   5865   max aug-charges    IRDMAX=  22830
   dimension x,y,z NGX =    60 NGY =   60 NGZ =  160
   dimension x,y,z NGXF=   120 NGYF=  120 NGZF=  320
   support grid    NGXF=   120 NGYF=  120 NGZF=  320
   ions per type =              36   1
   NGX,Y,Z   is equivalent  to a cutoff of  11.33, 11.33, 11.47 a.u.
   NGXF,Y,Z  is equivalent  to a cutoff of  22.66, 22.66, 22.94 a.u.

 SYSTEM =  unknown system                          
 POSCAR =  Au O                                    

 Startparameter for this run:
   NWRITE =      2    write-flag & timer
   PREC   = accura    normal or accurate (medium, high low for compatibility)
   ISTART =      0    job   : 0-new  1-cont  2-samecut
   ICHARG =      2    charge: 1-file 2-atom 10-const
   ISPIN  =      1    spin polarized calculation?
   LNONCOLLINEAR =      F non collinear calculations
   LSORBIT =      F    spin-orbit coupling
   INIWAV =      1    electr: 0-lowe 1-rand  2-diag
   LASPH  =      F    aspherical Exc in radial PAW
 Electronic Relaxation 1
   ENCUT  =  400.0 eV  29.40 Ry    5.42 a.u.  14.36 14.36 37.81*2*pi/ulx,y,z
   ENINI  =  400.0     initial cutoff
   ENAUG  =  605.4 eV  augmentation charge cutoff
   NELM   =     60;   NELMIN=  2; NELMDL=  0     # of ELM steps 
   EDIFF  = 0.1E-03   stopping-criterion for ELM
   LREAL  =      T    real-space projection
   NLSPLINE    = F    spline interpolate recip. space projectors
   LCOMPAT=      F    compatible to vasp.4.4
   GGA_COMPAT  = T    GGA compatible to vasp.4.4-vasp.4.6
   LMAXPAW     = -100 max onsite density
   LMAXMIX     =    2 max onsite mixed and CHGCAR
   VOSKOWN=      0    Vosko Wilk Nusair interpolation
   ROPT   =   -0.00025  -0.00025
 Ionic relaxation
   EDIFFG = -.3E-01   stopping-criterion for IOM
   NSW    =      0    number of steps for IOM
   NBLOCK =      1;   KBLOCK =      1    inner block; outer block 
   IBRION =     -1    ionic relax: 0-MD 1-quasi-New 2-CG
   NFREE  =      0    steps in history (QN), initial steepest desc. (CG)
   ISIF   =      2    stress and relaxation
   IWAVPR =     10    prediction:  0-non 1-charg 2-wave 3-comb
   ISYM   =      0    0-nonsym 1-usesym 2-fastsym
   LCORR  =      T    Harris-Foulkes like correction to forces

   POTIM  = 0.5000    time-step for ionic-motion
   TEIN   =    0.0    initial temperature
   TEBEG  =    0.0;   TEEND  =   0.0 temperature during run
   SMASS  =  -3.00    Nose mass-parameter (am)
   estimated Nose-frequenzy (Omega)   =  0.10E-29 period in steps = 0.13E+47 mass=  -0.177E-26a.u.
   SCALEE = 1.0000    scale energy and forces
   NPACO  =    256;   APACO  = 10.0  distance and # of slots for P.C.
   PSTRESS=    0.0 pullay stress

  Mass of Ions in am
   POMASS = 196.97 16.00
  Ionic Valenz
   ZVAL   =  11.00  6.00
  Atomic Wigner-Seitz radii
   RWIGS  =  -1.00 -1.00
  virtual crystal weights 
   VCA    =   1.00  1.00
   NELECT =     402.0000    total number of electrons
   NUPDOWN=      -1.0000    fix difference up-down

 DOS related values:
   EMIN   =  10.00;   EMAX   =-10.00  energy-range for DOS
   EFERMI =   0.00;   METHOD = LEGACY      
   ISMEAR =     1;   SIGMA  =   0.10  broadening in eV -4-tet -1-fermi 0-gaus

 Electronic relaxation 2 (details)
   IALGO  =     68    algorithm
   LDIAG  =      T    sub-space diagonalisation (order eigenvalues)
   LSUBROT=      F    optimize rotation matrix (better conditioning)
   TURBO    =      0    0=normal 1=particle mesh
   IRESTART =      0    0=no restart 2=restart with 2 vectors
   NREBOOT  =      0    no. of reboots
   NMIN     =      0    reboot dimension
   EREF     =   0.00    reference energy to select bands
   IMIX   =      4    mixing-type and parameters
     AMIX     =   0.40;   BMIX     =  1.00
     AMIX_MAG =   1.60;   BMIX_MAG =  1.00
     AMIN     =   0.10
     WC   =   100.;   INIMIX=   1;  MIXPRE=   1;  MAXMIX= -45

 Intra band minimization:
   WEIMIN = 0.0000     energy-eigenvalue tresh-hold
   EBREAK =  0.10E-06  absolut break condition
   DEPER  =   0.30     relativ break condition  

   TIME   =   0.40     timestep for ELM

  volume/ion in A,a.u.               =      42.06       283.86
  Fermi-wavevector in a.u.,A,eV,Ry     =   1.042596  1.970220 14.789610  1.087006
  Thomas-Fermi vector in A             =   2.177268

 Write flags
   LWAVE        =      F    write WAVECAR
   LDOWNSAMPLE  =      F    k-point downsampling of WAVECAR
   LCHARG       =      F    write CHGCAR
   LVTOT        =      F    write LOCPOT, total local potential
   LVHAR        =      F    write LOCPOT, Hartree potential only
   WRT_POTENTIAL= false  ! write potential to hdf5 file
   LELF         =      F    write electronic localiz. function (ELF)
   LORBIT       =      0    0 simple, 1 ext, 2 COOP (PROOUT), +10 PAW based schemes


 Dipole corrections
   LMONO      =      F    monopole corrections only (constant potential shift)
   LDIPOL     =      T    correct potential (dipole corrections)
   IDIPOL     =      3    1-x, 2-y, 3-z, 4-all directions 
   EPSILON    =  1.0000000 bulk dielectric constant
   LVACPOTAV  =      F  vacuum potentials using an averaging scheme for the charge density
   VACPOTFLAT =  0.1000000 required flatness to determine vacuum potential
 Exchange correlation treatment:
   GGA     = PE    functional components
   XC_C    = 1    coefficients multiplying the functional components
   LIBXC   =     F    Libxc                    
   VOSKOWN =     0    Vosko Wilk Nusair interpolation
   LHFCALC =     F    Hartree Fock is set to
   LHFONE  =     F    Hartree Fock one center treatment
   AEXX    =    0.0000 exact exchange contribution

 Parameters of functionals:
   PE:
     No parameter

 Van der Waals corrections
   IVDW    =     0    specifies the selected vdW correction

 Linear response parameters
   LEPSILON=     F    determine dielectric tensor
   LRPA    =     F    only Hartree local field effects (RPA)
   LNABLA  =     F    use nabla operator in PAW spheres
   LVEL    =     F    velocity operator in full k-point grid
   CSHIFT  =0.1000    complex shift for real part using Kramers Kronig
   OMEGAMAX=  -1.0    maximum frequency
   DEG_THRESHOLD= 0.2000000E-02 threshold for treating states as degnerate
   RTIME   =   -0.100 relaxation time in fs
  (WPLASMAI=    0.000 imaginary part of plasma frequency in eV, 0.658/RTIME)
   DFIELD  = 0.0000000 0.0000000 0.0000000 field for delta impulse in time

  Optional k-point grid parameters
   LKPOINTS_OPT  =     F    use optional k-point grid
   KPOINTS_OPT_MODE=     1    mode for optional k-point grid

 Orbital magnetization related:
   ORBITALMAG=     F  switch on orbital magnetization
   LCHIMAG   =     F  perturbation theory with respect to B field
   DQ        =  0.001000  dq finite difference perturbation B field
   LLRAUG    =     F  two centre corrections for induced B field
   LBONE     =     F  B-component reconstruction in AE one-centre
   LVGVCALC  =     T  calculate vGv susceptibility
   LVGVAPPL  =     F  apply vGv susceptibility instead of pGv for G=0

 Random number generation:
   RANDOM_GENERATOR = DEFAULT
   PCG_SEED         = not used


--------------------------------------------------------------------------------------------------------


 Static calculation
 charge density and potential will be updated during run
 non-spin polarized calculation
 RMM-DIIS sequential band-by-band and
  variant of blocked Davidson during initial phase
 perform sub-space diagonalisation
    before iterative eigenvector-optimisation
 modified Broyden-mixing scheme, WC =      100.0
 initial mixing is a Kerker type mixing with AMIX =  0.4000 and BMIX =      1.0000
 Hartree-type preconditioning will be used
 using additional bands           41
 real space projection scheme for non local part
 use partial core corrections
 calculate Harris-corrections to forces   (improved forces if not selfconsistent)
 use gradient corrections 
 use of overlap-Matrix (Vanderbilt PP)
 Methfessel and Paxton  Order N= 1 SIGMA  =   0.10


--------------------------------------------------------------------------------------------------------


  energy-cutoff  :      400.00
  volume of cell :     1556.33
      direct lattice vectors                 reciprocal lattice vectors
     8.803479426  0.000000000  0.000000000     0.113591451 -0.065582055  0.000000000
     4.401739713  7.624036824  0.000000000     0.000000000  0.131164109  0.000000000
     0.000000000  0.000000000 23.188010851     0.000000000  0.000000000  0.043125735

  length of vectors
     8.803479426  8.803479426 23.188010851     0.131164109  0.131164109  0.043125735



 k-points in units of 2pi/SCALE and weight: KPOINTS created by Atomic Simulation Env
   0.02839786  0.01639551  0.00000000       0.167
   0.00000000  0.03279103  0.00000000       0.167
  -0.02839786  0.01639551  0.00000000       0.167
  -0.02839786  0.04918654  0.00000000       0.167
   0.05679573 -0.06558205  0.00000000       0.167
  -0.02839786  0.08197757  0.00000000       0.167

 k-points in reciprocal lattice and weights: KPOINTS created by Atomic Simulation Env
   0.25000000  0.25000000  0.00000000       0.167
   0.00000000  0.25000000  0.00000000       0.167
  -0.25000000  0.00000000  0.00000000       0.167
  -0.25000000  0.25000000  0.00000000       0.167
   0.50000000 -0.25000000  0.00000000       0.167
  -0.25000000  0.50000000  0.00000000       0.167

 position of ions in fractional coordinates (direct lattice) 
   0.00000000  0.00000000  0.00000000
   0.33333333  0.00000000  0.00000000
   0.66666667  0.00000000  0.00000000
   0.00000000  0.33333333  0.00000000
   0.33333333  0.33333333  0.00000000
   0.66666667  0.33333333  0.00000000
   0.00000000  0.66666667  0.00000000
   0.33333333  0.66666667  0.00000000
   0.66666667  0.66666667  0.00000000
   0.11111111  0.11111111  0.10332942
   0.44444444  0.11111111  0.10332942
   0.77777778  0.11111111  0.10332942
   0.11111111  0.44444444  0.10332942
   0.44444444  0.44444444  0.10332942
   0.77777778  0.44444444  0.10332942
   0.11111111  0.77777778  0.10332942
   0.44444444  0.77777778  0.10332942
   0.77777778  0.77777778  0.10332942
   0.89064650  0.22299021  0.20784995
   0.22047338  0.22269691  0.20800869
   0.55600325  0.22109049  0.20515214
   0.89040413  0.55412417  0.20646211
   0.21942275  0.55770917  0.20513845
   0.55519065  0.55691663  0.20481299
   0.89100054  0.89251006  0.20616657
   0.22119881  0.89255653  0.20781768
   0.55207020  0.89252565  0.20643141
   0.99966342  0.00229782  0.31425052
   0.35985965  0.99234835  0.31329211
   0.67500419  0.00291012  0.30985712
   0.98884967  0.36292359  0.31344223
   0.33696496  0.33990231  0.30766115
   0.66382041  0.33820606  0.30829183
   0.00038784  0.67754244  0.30990825
   0.33543207  0.66679147  0.30824933
   0.66767596  0.67082633  0.30788124
   0.12878318  0.13170750  0.36299485

 position of ions in cartesian coordinates  (Angst):
   0.00000000  0.00000000  0.00000000
   2.93449314  0.00000000  0.00000000
   5.86898628  0.00000000  0.00000000
   1.46724657  2.54134561  0.00000000
   4.40173971  2.54134561  0.00000000
   7.33623285  2.54134561  0.00000000
   2.93449314  5.08269122  0.00000000
   5.86898628  5.08269122  0.00000000
   8.80347943  5.08269122  0.00000000
   1.46724657  0.84711520  2.39600362
   4.40173971  0.84711520  2.39600362
   7.33623285  0.84711520  2.39600362
   2.93449314  3.38846081  2.39600362
   5.86898628  3.38846081  2.39600362
   8.80347943  3.38846081  2.39600362
   4.40173971  5.92980642  2.39600362
   7.33623285  5.92980642  2.39600362
  10.27072600  5.92980642  2.39600362
   8.82233301  1.70008559  4.81962690
   2.92118669  1.69784948  4.82330770
   5.86794596  1.68560201  4.75707005
  10.27776478  4.22466308  4.78744568
   4.38657424  4.25199524  4.75675261
   7.33901154  4.24595291  4.74920580
  11.77250189  6.80452958  4.78059258
   5.87612073  6.80488389  4.81887852
   8.78880428  6.80464845  4.78673383
   8.81063075  0.01751869  7.28684451
   7.53607620  7.56570034  7.26462075
   5.95519507  0.02218685  7.18497024
  10.30281293  2.76694283  7.26810187
   4.46262560  2.59142776  7.13405010
   7.33262441  2.57849546  7.14867437
   2.98577977  5.16560850  7.18615594
   5.88801182  5.08364270  7.14768889
   8.83067443  5.11440463  7.13915365
   1.71348215  1.00414279  8.41712849



--------------------------------------------------------------------------------------------------------


 k-point     1 :   0.2500 0.2500 0.0000  plane waves:   28271
 k-point     2 :   0.0000 0.2500 0.0000  plane waves:   28271
 k-point     3 :  -0.2500 0.0000 0.0000  plane waves:   28271
 k-point     4 :  -0.2500 0.2500 0.0000  plane waves:   28278
 k-point     5 :   0.5000-0.2500 0.0000  plane waves:   28278
 k-point     6 :  -0.2500 0.5000 0.0000  plane waves:   28278

 maximum and minimum number of plane-waves per node :      1212     1152

 maximum number of plane-waves:     28278
 maximum index in each direction: 
   IXMAX=   14   IYMAX=   14   IZMAX=   37
   IXMIN=  -14   IYMIN=  -14   IZMIN=  -37


 real space projection operators:
  total allocation   :      28792.72 KBytes
  max/ min on nodes  :       1459.70        934.11


 parallel 3D FFT for wavefunctions:
    minimum data exchange during FFTs selected (reduces bandwidth)
 parallel 3D FFT for charge:
    minimum data exchange during FFTs selected (reduces bandwidth)


 total amount of memory used by VASP MPI-rank0    61944. kBytes
=======================================================================

   base      :      30000. kBytes
   nonlr-proj:       5465. kBytes
   fftplans  :       4620. kBytes
   grid      :       7634. kBytes
   one-center:         31. kBytes
   wavefun   :      14194. kBytes

     INWAV:  cpu time      0.0000: real time      0.0000
 Broyden mixing: mesh for mixing (old mesh)
   NGX = 29   NGY = 29   NGZ = 75
  (NGX  =120   NGY  =120   NGZ  =320)
  gives a total of  63075 points

 initial charge density was supplied:
 charge density of overlapping atoms calculated
 number of electron     402.0000000 magnetization 
 keeping initial charge density in first step


--------------------------------------------------------------------------------------------------------


 Maximum index for non-local projection operator          529
 Maximum index for augmentation-charges         1038 (set IRDMAX)


--------------------------------------------------------------------------------------------------------


 First call to EWALD:  gamma=   0.153
 Maximum number of real-space cells 4x 4x 2
 Maximum number of reciprocal cells 2x 2x 5

    FEWALD:  cpu time      0.0015: real time      0.0016


--------------------------------------- Ionic step        1  -------------------------------------------




--------------------------------------- Iteration      1(   1)  ---------------------------------------


    POTLOK:  cpu time      0.0550: real time      0.0568
    SETDIJ:  cpu time      0.0113: real time      0.0114
     EDDAV:  cpu time      3.7233: real time      3.7454
       DOS:  cpu time      0.0015: real time      0.0015
    --------------------------------------------
      LOOP:  cpu time      3.7910: real time      3.8151

 eigenvalue-minimisations  :  2904
 total energy-change (2. order) : 0.2475542E+04  (-0.1592051E+05)
 number of electron     402.0000000 magnetization 
 augmentation part      402.0000000 magnetization 

 DIPCOR: dipole corrections for dipol
 direction  3 min pos   219,
 dipolmoment           0.000000      0.000000      0.000121 electrons x Angstroem
 Tr[quadrupol]     -4957.153836

 energy correction for charged system         0.000000 eV
 dipol+quadrupol energy correction           -0.000000 eV
 added-field ion interaction          0.003035 eV  (added to PSCEN)


 Free energy of the ion-electron system (eV)
  ---------------------------------------------------
  alpha Z        PSCENC =       990.63736317
  Ewald energy   TEWEN  =    113073.54044905
  -Hartree energ DENC   =   -148391.47705595
  -exchange      EXHF   =         0.00000000
  -V(xc)+E(xc)   XCENC  =       577.63981493
  PAW double counting   =     31814.05959759   -30984.71300122
  entropy T*S    EENTRO =         0.00390042
  eigenvalues    EBANDS =      1624.68955703
  atomic energy  EATOM  =     33771.16187166
  Solvation  Ediel_sol  =         0.00000000
  ---------------------------------------------------
  free energy    TOTEN  =      2475.54249667 eV

  energy without entropy =     2475.53859625  energy(sigma->0) =     2475.54119653


--------------------------------------------------------------------------------------------------------




--------------------------------------- Iteration      1(   2)  ---------------------------------------


     EDDAV:  cpu time      4.0857: real time      4.1094
       DOS:  cpu time      0.0013: real time      0.0013
    --------------------------------------------
      LOOP:  cpu time      4.0870: real time      4.1108

 eigenvalue-minimisations  :  3352
 total energy-change (2. order) :-0.2440789E+04  (-0.2252698E+04)
 number of electron     402.0000000 magnetization 
 augmentation part      402.0000000 magnetization 

 DIPCOR: dipole corrections for dipol
 direction  3 min pos   219,
 dipolmoment           0.000000      0.000000      0.000121 electrons x Angstroem
 Tr[quadrupol]     -4957.153836

 energy correction for charged system         0.000000 eV
 dipol+quadrupol energy correction           -0.000000 eV
 added-field ion interaction          0.003035 eV  (added to PSCEN)


 Free energy of the ion-electron system (eV)
  ---------------------------------------------------
  alpha Z        PSCENC =       990.63736317
  Ewald energy   TEWEN  =    113073.54044905
  -Hartree energ DENC   =   -148391.47705595
  -exchange      EXHF   =         0.00000000
  -V(xc)+E(xc)   XCENC  =       577.63981493
  PAW double counting   =     31814.05959759   -30984.71300122
  entropy T*S    EENTRO =         0.01285044
  eigenvalues    EBANDS =      -816.10808308
  atomic energy  EATOM  =     33771.16187166
  Solvation  Ediel_sol  =         0.00000000
  ---------------------------------------------------
  free energy    TOTEN  =        34.75380658 eV

  energy without entropy =       34.74095614  energy(sigma->0) =       34.74952310


--------------------------------------------------------------------------------------------------------




--------------------------------------- Iteration      1(   3)  ---------------------------------------


     EDDAV:  cpu time      4.0430: real time      4.0656
       DOS:  cpu time      0.0011: real time      0.0011
    --------------------------------------------
      LOOP:  cpu time      4.0441: real time      4.0668

 eigenvalue-minimisations  :  3312
 total energy-change (2. order) :-0.1573434E+03  (-0.1500705E+03)
 number of electron     402.0000000 magnetization 
 augmentation part      402.0000000 magnetization 

 DIPCOR: dipole corrections for dipol
 direction  3 min pos   219,
 dipolmoment           0.000000      0.000000      0.000121 electrons x Angstroem
 Tr[quadrupol]     -4957.153836

 energy correction for charged system         0.000000 eV
 dipol+quadrupol energy correction           -0.000000 eV
 added-field ion interaction          0.003035 eV  (added to PSCEN)


 Free energy of the ion-electron system (eV)
  ---------------------------------------------------
  alpha Z        PSCENC =       990.63736317
  Ewald energy   TEWEN  =    113073.54044905
  -Hartree energ DENC   =   -148391.47705595
  -exchange      EXHF   =         0.00000000
  -V(xc)+E(xc)   XCENC  =       577.63981493
  PAW double counting   =     31814.05959759   -30984.71300122
  entropy T*S    EENTRO =        -0.01282827
  eigenvalues    EBANDS =      -973.42585095
  atomic energy  EATOM  =     33771.16187166
  Solvation  Ediel_sol  =         0.00000000
  ---------------------------------------------------
  free energy    TOTEN  =      -122.58963999 eV

  energy without entropy =     -122.57681173  energy(sigma->0) =     -122.58536390


--------------------------------------------------------------------------------------------------------




--------------------------------------- Iteration      1(   4)  ---------------------------------------


     EDDAV:  cpu time      3.9516: real time      3.9745
       DOS:  cpu time      0.0012: real time      0.0012
    --------------------------------------------
      LOOP:  cpu time      3.9528: real time      3.9757

 eigenvalue-minimisations  :  3216
 total energy-change (2. order) :-0.4273033E+01  (-0.4236150E+01)
 number of electron     402.0000000 magnetization 
 augmentation part      402.0000000 magnetization 

 DIPCOR: dipole corrections for dipol
 direction  3 min pos   219,
 dipolmoment           0.000000      0.000000      0.000121 electrons x Angstroem
 Tr[quadrupol]     -4957.153836

 energy correction for charged system         0.000000 eV
 dipol+quadrupol energy correction           -0.000000 eV
 added-field ion interaction          0.003035 eV  (added to PSCEN)


 Free energy of the ion-electron system (eV)
  ---------------------------------------------------
  alpha Z        PSCENC =       990.63736317
  Ewald energy   TEWEN  =    113073.54044905
  -Hartree energ DENC   =   -148391.47705595
  -exchange      EXHF   =         0.00000000
  -V(xc)+E(xc)   XCENC  =       577.63981493
  PAW double counting   =     31814.05959759   -30984.71300122
  entropy T*S    EENTRO =        -0.01296461
  eigenvalues    EBANDS =      -977.69874719
  atomic energy  EATOM  =     33771.16187166
  Solvation  Ediel_sol  =         0.00000000
  ---------------------------------------------------
  free energy    TOTEN  =      -126.86267258 eV

  energy without entropy =     -126.84970797  energy(sigma->0) =     -126.85835104


--------------------------------------------------------------------------------------------------------




--------------------------------------- Iteration      1(   5)  ---------------------------------------


     EDDAV:  cpu time      4.1613: real time      4.1850
       DOS:  cpu time      0.0012: real time      0.0012
    CHARGE:  cpu time      0.1574: real time      0.1582
    MIXING:  cpu time      0.0013: real time      0.0013
    --------------------------------------------
      LOOP:  cpu time      4.3212: real time      4.3456

 eigenvalue-minimisations  :  3432
 total energy-change (2. order) :-0.1548096E+00  (-0.1544395E+00)
 number of electron     401.9999993 magnetization 
 augmentation part      139.9630438 magnetization 

 DIPCOR: dipole corrections for dipol
 direction  3 min pos   219,
 dipolmoment           0.000000      0.000000      0.000121 electrons x Angstroem
 Tr[quadrupol]     -4957.153836

 energy correction for charged system         0.000000 eV
 dipol+quadrupol energy correction           -0.000000 eV
 added-field ion interaction          0.003035 eV  (added to PSCEN)


 Broyden mixing:
  rms(total) = 0.44638E+01    rms(broyden)= 0.44637E+01
  rms(prec ) = 0.45554E+01
  weight for this iteration     100.00

 Free energy of the ion-electron system (eV)
  ---------------------------------------------------
  alpha Z        PSCENC =       990.63736317
  Ewald energy   TEWEN  =    113073.54044905
  -Hartree energ DENC   =   -148391.47705595
  -exchange      EXHF   =         0.00000000
  -V(xc)+E(xc)   XCENC  =       577.63981493
  PAW double counting   =     31814.05959759   -30984.71300122
  entropy T*S    EENTRO =        -0.01297443
  eigenvalues    EBANDS =      -977.85354693
  atomic energy  EATOM  =     33771.16187166
  Solvation  Ediel_sol  =         0.00000000
  ---------------------------------------------------
  free energy    TOTEN  =      -127.01748214 eV

  energy without entropy =     -127.00450771  energy(sigma->0) =     -127.01315733


--------------------------------------------------------------------------------------------------------




--------------------------------------- Iteration      1(   6)  ---------------------------------------


    POTLOK:  cpu time      0.0437: real time      0.0439
    SETDIJ:  cpu time      0.0095: real time      0.0096
    EDDIAG:  cpu time      0.5828: real time      0.5856
  RMM-DIIS:  cpu time      2.3670: real time      2.3791
    ORTHCH:  cpu time      0.0864: real time      0.0868
       DOS:  cpu time      0.0010: real time      0.0010
    CHARGE:  cpu time      0.1547: real time      0.1553
    MIXING:  cpu time      0.0012: real time      0.0012
    --------------------------------------------
      LOOP:  cpu time      3.2461: real time      3.2624

 eigenvalue-minimisations  :  3129
 total energy-change (2. order) : 0.6439692E+01  (-0.3024009E+01)
 number of electron     401.9999994 magnetization 
 augmentation part      144.0153524 magnetization 

 DIPCOR: dipole corrections for dipol
 direction  3 min pos   225,
 dipolmoment           0.000000      0.000000      0.568232 electrons x Angstroem
 Tr[quadrupol]     -4953.662938

 energy correction for charged system         0.000000 eV
 dipol+quadrupol energy correction           -0.018771 eV
 added-field ion interaction         25.790857 eV  (added to PSCEN)


 Broyden mixing:
  rms(total) = 0.36618E+01    rms(broyden)= 0.36611E+01
  rms(prec ) = 0.39175E+01
  weight for this iteration     100.00

 eigenvalues of (default mixing * dielectric matrix)
  average eigenvalue GAMMA=   0.8089
  0.8089

 Free energy of the ion-electron system (eV)
  ---------------------------------------------------
  alpha Z        PSCENC =      1016.40641440
  Ewald energy   TEWEN  =    113073.54044905
  -Hartree energ DENC   =   -148006.51699536
  -exchange      EXHF   =         0.00000000
  -V(xc)+E(xc)   XCENC  =       566.73062146
  PAW double counting   =     33634.77665484   -32845.29313303
  entropy T*S    EENTRO =         0.02756688
  eigenvalues    EBANDS =     -1331.41123962
  atomic energy  EATOM  =     33771.16187166
  Solvation  Ediel_sol  =         0.00000000
  ---------------------------------------------------
  free energy    TOTEN  =      -120.57778972 eV

  energy without entropy =     -120.60535660  energy(sigma->0) =     -120.58697868


--------------------------------------------------------------------------------------------------------




--------------------------------------- Iteration      1(   7)  ---------------------------------------


    POTLOK:  cpu time      0.0434: real time      0.0436
    SETDIJ:  cpu time      0.0097: real time      0.0097
    EDDIAG:  cpu time      0.5762: real time      0.6073
  RMM-DIIS:  cpu time      2.5319: real time      2.5446
    ORTHCH:  cpu time      0.0849: real time      0.0853
       DOS:  cpu time      0.0009: real time      0.0009
    CHARGE:  cpu time      0.1532: real time      0.1538
    MIXING:  cpu time      0.0012: real time      0.0012
    --------------------------------------------
      LOOP:  cpu time      3.4014: real time      3.4464

 eigenvalue-minimisations  :  3359
 total energy-change (2. order) :-0.1352859E+02  (-0.3622330E+01)
 number of electron     401.9999993 magnetization 
 augmentation part      144.0455651 magnetization 

 DIPCOR: dipole corrections for dipol
 direction  3 min pos   231,
 dipolmoment           0.000000      0.000000     -1.446732 electrons x Angstroem
 Tr[quadrupol]     -4951.696661

 energy correction for charged system         0.000000 eV
 dipol+quadrupol energy correction           -0.121677 eV
 added-field ion interaction        -95.063773 eV  (added to PSCEN)


 Broyden mixing:
  rms(total) = 0.31904E+01    rms(broyden)= 0.31896E+01
  rms(prec ) = 0.39907E+01
  weight for this iteration     100.00

 eigenvalues of (default mixing * dielectric matrix)
  average eigenvalue GAMMA=   1.1576
  1.9650  0.3503

 Free energy of the ion-electron system (eV)
  ---------------------------------------------------
  alpha Z        PSCENC =       895.44887826
  Ewald energy   TEWEN  =    113073.54044905
  -Hartree energ DENC   =   -148014.53209721
  -exchange      EXHF   =         0.00000000
  -V(xc)+E(xc)   XCENC  =       562.94088633
  PAW double counting   =     34535.45512162   -33759.36370229
  entropy T*S    EENTRO =        -0.00151135
  eigenvalues    EBANDS =     -1198.75627818
  atomic energy  EATOM  =     33771.16187166
  Solvation  Ediel_sol  =         0.00000000
  ---------------------------------------------------
  free energy    TOTEN  =      -134.10638212 eV

  energy without entropy =     -134.10487077  energy(sigma->0) =     -134.10587834


--------------------------------------------------------------------------------------------------------




--------------------------------------- Iteration      1(   8)  ---------------------------------------


    POTLOK:  cpu time      0.0438: real time      0.0440
    SETDIJ:  cpu time      0.0101: real time      0.0102
    EDDIAG:  cpu time      0.5741: real time      0.5767
  RMM-DIIS:  cpu time      2.5687: real time      2.5821
    ORTHCH:  cpu time      0.0849: real time      0.0853
       DOS:  cpu time      0.0009: real time      0.0009
    CHARGE:  cpu time      0.1540: real time      0.1545
    MIXING:  cpu time      0.0012: real time      0.0012
    --------------------------------------------
      LOOP:  cpu time      3.4377: real time      3.4549

 eigenvalue-minimisations  :  3414
 total energy-change (2. order) :-0.6400052E+00  (-0.3154944E+01)
 number of electron     401.9999991 magnetization 
 augmentation part      144.5548270 magnetization 

 DIPCOR: dipole corrections for dipol
 direction  3 min pos   222,
 dipolmoment           0.000000      0.000000      1.627764 electrons x Angstroem
 Tr[quadrupol]     -4959.477434

 energy correction for charged system         0.000000 eV
 dipol+quadrupol energy correction           -0.154034 eV
 added-field ion interaction         57.341560 eV  (added to PSCEN)


 Broyden mixing:
  rms(total) = 0.25061E+01    rms(broyden)= 0.25060E+01
  rms(prec ) = 0.33918E+01
  weight for this iteration     100.00

 eigenvalues of (default mixing * dielectric matrix)
  average eigenvalue GAMMA=   1.0696
  2.5127  0.4307  0.2653

 Free energy of the ion-electron system (eV)
  ---------------------------------------------------
  alpha Z        PSCENC =      1047.82185432
  Ewald energy   TEWEN  =    113073.54044905
  -Hartree energ DENC   =   -147972.49119714
  -exchange      EXHF   =         0.00000000
  -V(xc)+E(xc)   XCENC  =       559.59623443
  PAW double counting   =     35792.37990243   -35036.42367328
  entropy T*S    EENTRO =        -0.00960191
  eigenvalues    EBANDS =     -1370.32222691
  atomic energy  EATOM  =     33771.16187166
  Solvation  Ediel_sol  =         0.00000000
  ---------------------------------------------------
  free energy    TOTEN  =      -134.74638734 eV

  energy without entropy =     -134.73678544  energy(sigma->0) =     -134.74318671


--------------------------------------------------------------------------------------------------------




--------------------------------------- Iteration      1(   9)  ---------------------------------------


    POTLOK:  cpu time      0.0438: real time      0.0440
    SETDIJ:  cpu time      0.0100: real time      0.0100
    EDDIAG:  cpu time      0.5735: real time      0.5760
  RMM-DIIS:  cpu time      2.4907: real time      2.5031
    ORTHCH:  cpu time      0.0846: real time      0.0850
       DOS:  cpu time      0.0009: real time      0.0009
    CHARGE:  cpu time      0.1534: real time      0.1540
    MIXING:  cpu time      0.0012: real time      0.0012
    --------------------------------------------
      LOOP:  cpu time      3.3581: real time      3.3742

 eigenvalue-minimisations  :  3280
 total energy-change (2. order) : 0.1662018E+02  (-0.1244158E+01)
 number of electron     401.9999993 magnetization 
 augmentation part      146.8902443 magnetization 

 DIPCOR: dipole corrections for dipol
 direction  3 min pos   221,
 dipolmoment           0.000000      0.000000     -0.178139 electrons x Angstroem
 Tr[quadrupol]     -4955.309881

 energy correction for charged system         0.000000 eV
 dipol+quadrupol energy correction           -0.001845 eV
 added-field ion interaction         -5.672006 eV  (added to PSCEN)


 Broyden mixing:
  rms(total) = 0.11279E+01    rms(broyden)= 0.11278E+01
  rms(prec ) = 0.13070E+01
  weight for this iteration     100.00

 eigenvalues of (default mixing * dielectric matrix)
  average eigenvalue GAMMA=   0.9969
  2.3289  0.9188  0.4989  0.2410

 Free energy of the ion-electron system (eV)
  ---------------------------------------------------
  alpha Z        PSCENC =       984.96047745
  Ewald energy   TEWEN  =    113073.54044905
  -Hartree energ DENC   =   -147881.33598673
  -exchange      EXHF   =         0.00000000
  -V(xc)+E(xc)   XCENC  =       557.78860515
  PAW double counting   =     36803.01024348   -36063.76932778
  entropy T*S    EENTRO =        -0.01755407
  eigenvalues    EBANDS =     -1363.46498978
  atomic energy  EATOM  =     33771.16187166
  Solvation  Ediel_sol  =         0.00000000
  ---------------------------------------------------
  free energy    TOTEN  =      -118.12621159 eV

  energy without entropy =     -118.10865752  energy(sigma->0) =     -118.12036023


--------------------------------------------------------------------------------------------------------




--------------------------------------- Iteration      1(  10)  ---------------------------------------


    POTLOK:  cpu time      0.0442: real time      0.0444
    SETDIJ:  cpu time      0.0105: real time      0.0105
    EDDIAG:  cpu time      0.5760: real time      0.5786
  RMM-DIIS:  cpu time      2.4909: real time      2.5036
    ORTHCH:  cpu time      0.0847: real time      0.0850
       DOS:  cpu time      0.0010: real time      0.0010
    CHARGE:  cpu time      0.1531: real time      0.1537
    MIXING:  cpu time      0.0013: real time      0.0013
    --------------------------------------------
      LOOP:  cpu time      3.3615: real time      3.3780

 eigenvalue-minimisations  :  3298
 total energy-change (2. order) : 0.2784350E+01  (-0.5979413E+00)
 number of electron     401.9999993 magnetization 
 augmentation part      146.0724684 magnetization 

 DIPCOR: dipole corrections for dipol
 direction  3 min pos   225,
 dipolmoment           0.000000      0.000000      0.015492 electrons x Angstroem
 Tr[quadrupol]     -4952.328749

 energy correction for charged system         0.000000 eV
 dipol+quadrupol energy correction           -0.000014 eV
 added-field ion interaction          0.703158 eV  (added to PSCEN)


 Broyden mixing:
  rms(total) = 0.41620E+00    rms(broyden)= 0.41561E+00
  rms(prec ) = 0.45922E+00
  weight for this iteration     100.00

 eigenvalues of (default mixing * dielectric matrix)
  average eigenvalue GAMMA=   0.9732
  2.3512  1.2433  0.5142  0.5142  0.2430

 Free energy of the ion-electron system (eV)
  ---------------------------------------------------
  alpha Z        PSCENC =       991.33747215
  Ewald energy   TEWEN  =    113073.54044905
  -Hartree energ DENC   =   -147862.82994342
  -exchange      EXHF   =         0.00000000
  -V(xc)+E(xc)   XCENC  =       560.40388336
  PAW double counting   =     36825.84240800   -36081.58014251
  entropy T*S    EENTRO =        -0.02680388
  eigenvalues    EBANDS =     -1393.19105631
  atomic energy  EATOM  =     33771.16187166
  Solvation  Ediel_sol  =         0.00000000
  ---------------------------------------------------
  free energy    TOTEN  =      -115.34186191 eV

  energy without entropy =     -115.31505803  energy(sigma->0) =     -115.33292728


--------------------------------------------------------------------------------------------------------




--------------------------------------- Iteration      1(  11)  ---------------------------------------


    POTLOK:  cpu time      0.0437: real time      0.0439
    SETDIJ:  cpu time      0.0104: real time      0.0104
    EDDIAG:  cpu time      0.5746: real time      0.5773
  RMM-DIIS:  cpu time      2.4534: real time      2.4661
    ORTHCH:  cpu time      0.0848: real time      0.0852
       DOS:  cpu time      0.0010: real time      0.0010
    CHARGE:  cpu time      0.1532: real time      0.1538
    MIXING:  cpu time      0.0013: real time      0.0013
    --------------------------------------------
      LOOP:  cpu time      3.3224: real time      3.3389

 eigenvalue-minimisations  :  3260
 total energy-change (2. order) :-0.1865497E-01  (-0.1115515E+00)
 number of electron     401.9999994 magnetization 
 augmentation part      145.5804029 magnetization 

 DIPCOR: dipole corrections for dipol
 direction  3 min pos   226,
 dipolmoment           0.000000      0.000000      0.119116 electrons x Angstroem
 Tr[quadrupol]     -4952.940368

 energy correction for charged system         0.000000 eV
 dipol+quadrupol energy correction           -0.000825 eV
 added-field ion interaction          5.809883 eV  (added to PSCEN)


 Broyden mixing:
  rms(total) = 0.51563E+00    rms(broyden)= 0.51523E+00
  rms(prec ) = 0.56105E+00
  weight for this iteration     100.00

 eigenvalues of (default mixing * dielectric matrix)
  average eigenvalue GAMMA=   0.9761
  2.3837  1.0515  0.8523  0.8523  0.4734  0.2435

 Free energy of the ion-electron system (eV)
  ---------------------------------------------------
  alpha Z        PSCENC =       996.44338678
  Ewald energy   TEWEN  =    113073.54044905
  -Hartree energ DENC   =   -147896.52693070
  -exchange      EXHF   =         0.00000000
  -V(xc)+E(xc)   XCENC  =       561.37147996
  PAW double counting   =     36859.68877694   -36113.57850857
  entropy T*S    EENTRO =        -0.01377060
  eigenvalues    EBANDS =     -1367.44727139
  atomic energy  EATOM  =     33771.16187166
  Solvation  Ediel_sol  =         0.00000000
  ---------------------------------------------------
  free energy    TOTEN  =      -115.36051688 eV

  energy without entropy =     -115.34674628  energy(sigma->0) =     -115.35592668


--------------------------------------------------------------------------------------------------------




--------------------------------------- Iteration      1(  12)  ---------------------------------------


    POTLOK:  cpu time      0.0436: real time      0.0438
    SETDIJ:  cpu time      0.0109: real time      0.0109
    EDDIAG:  cpu time      0.5755: real time      0.5781
  RMM-DIIS:  cpu time      2.4221: real time      2.4344
    ORTHCH:  cpu time      0.0847: real time      0.0851
       DOS:  cpu time      0.0010: real time      0.0010
    CHARGE:  cpu time      0.1538: real time      0.1544
    MIXING:  cpu time      0.0014: real time      0.0014
    --------------------------------------------
      LOOP:  cpu time      3.2930: real time      3.3091

 eigenvalue-minimisations  :  3216
 total energy-change (2. order) : 0.1223267E+00  (-0.5509270E-01)
 number of electron     401.9999993 magnetization 
 augmentation part      145.7944157 magnetization 

 DIPCOR: dipole corrections for dipol
 direction  3 min pos   225,
 dipolmoment           0.000000      0.000000      0.110149 electrons x Angstroem
 Tr[quadrupol]     -4953.821942

 energy correction for charged system         0.000000 eV
 dipol+quadrupol energy correction           -0.000705 eV
 added-field ion interaction          4.999420 eV  (added to PSCEN)


 Broyden mixing:
  rms(total) = 0.20088E+00    rms(broyden)= 0.20003E+00
  rms(prec ) = 0.24284E+00
  weight for this iteration     100.00

 eigenvalues of (default mixing * dielectric matrix)
  average eigenvalue GAMMA=   0.9139
  2.3231  1.0991  1.0991  0.2436  0.6083  0.6083  0.4157

 Free energy of the ion-electron system (eV)
  ---------------------------------------------------
  alpha Z        PSCENC =       995.63304301
  Ewald energy   TEWEN  =    113073.54044905
  -Hartree energ DENC   =   -147907.51340247
  -exchange      EXHF   =         0.00000000
  -V(xc)+E(xc)   XCENC  =       560.77412939
  PAW double counting   =     36826.69657723   -36081.08579072
  entropy T*S    EENTRO =        -0.01423200
  eigenvalues    EBANDS =     -1354.43083537
  atomic energy  EATOM  =     33771.16187166
  Solvation  Ediel_sol  =         0.00000000
  ---------------------------------------------------
  free energy    TOTEN  =      -115.23819022 eV

  energy without entropy =     -115.22395822  energy(sigma->0) =     -115.23344622


--------------------------------------------------------------------------------------------------------




--------------------------------------- Iteration      1(  13)  ---------------------------------------


    POTLOK:  cpu time      0.0438: real time      0.0440
    SETDIJ:  cpu time      0.0110: real time      0.0111
    EDDIAG:  cpu time      0.5750: real time      0.5776
  RMM-DIIS:  cpu time      2.3999: real time      2.4121
    ORTHCH:  cpu time      0.0874: real time      0.0878
       DOS:  cpu time      0.0010: real time      0.0010
    CHARGE:  cpu time      0.1531: real time      0.1537
    MIXING:  cpu time      0.0014: real time      0.0014
    --------------------------------------------
      LOOP:  cpu time      3.2727: real time      3.2887

 eigenvalue-minimisations  :  3182
 total energy-change (2. order) : 0.6408818E-01  (-0.4119886E-02)
 number of electron     401.9999993 magnetization 
 augmentation part      145.7506740 magnetization 

 DIPCOR: dipole corrections for dipol
 direction  3 min pos   225,
 dipolmoment           0.000000      0.000000      0.106117 electrons x Angstroem
 Tr[quadrupol]     -4953.551069

 energy correction for charged system         0.000000 eV
 dipol+quadrupol energy correction           -0.000655 eV
 added-field ion interaction          4.816443 eV  (added to PSCEN)


 Broyden mixing:
  rms(total) = 0.14208E+00    rms(broyden)= 0.14207E+00
  rms(prec ) = 0.17183E+00
  weight for this iteration     100.00

 eigenvalues of (default mixing * dielectric matrix)
  average eigenvalue GAMMA=   1.0203
  2.2045  1.6363  1.6363  0.2435  0.7158  0.4702  0.6279  0.6279

 Free energy of the ion-electron system (eV)
  ---------------------------------------------------
  alpha Z        PSCENC =       995.45011667
  Ewald energy   TEWEN  =    113073.54044905
  -Hartree energ DENC   =   -147904.35577815
  -exchange      EXHF   =         0.00000000
  -V(xc)+E(xc)   XCENC  =       560.91455189
  PAW double counting   =     36812.07935901   -36065.83275578
  entropy T*S    EENTRO =        -0.02276528
  eigenvalues    EBANDS =     -1358.10915111
  atomic energy  EATOM  =     33771.16187166
  Solvation  Ediel_sol  =         0.00000000
  ---------------------------------------------------
  free energy    TOTEN  =      -115.17410204 eV

  energy without entropy =     -115.15133676  energy(sigma->0) =     -115.16651361


--------------------------------------------------------------------------------------------------------




--------------------------------------- Iteration      1(  14)  ---------------------------------------


    POTLOK:  cpu time      0.0438: real time      0.0440
    SETDIJ:  cpu time      0.0110: real time      0.0110
    EDDIAG:  cpu time      0.5765: real time      0.5792
  RMM-DIIS:  cpu time      2.4577: real time      2.4704
    ORTHCH:  cpu time      0.0868: real time      0.0871
       DOS:  cpu time      0.0009: real time      0.0009
    CHARGE:  cpu time      0.1530: real time      0.1535
    MIXING:  cpu time      0.0013: real time      0.0013
    --------------------------------------------
      LOOP:  cpu time      3.3311: real time      3.3476

 eigenvalue-minimisations  :  3247
 total energy-change (2. order) : 0.4605112E-01  (-0.3028777E-02)
 number of electron     401.9999993 magnetization 
 augmentation part      145.6772922 magnetization 

 DIPCOR: dipole corrections for dipol
 direction  3 min pos   225,
 dipolmoment           0.000000      0.000000      0.109425 electrons x Angstroem
 Tr[quadrupol]     -4953.361189

 energy correction for charged system         0.000000 eV
 dipol+quadrupol energy correction           -0.000696 eV
 added-field ion interaction          4.966579 eV  (added to PSCEN)


 Broyden mixing:
  rms(total) = 0.51665E-01    rms(broyden)= 0.51520E-01
  rms(prec ) = 0.60151E-01
  weight for this iteration     100.00

 eigenvalues of (default mixing * dielectric matrix)
  average eigenvalue GAMMA=   1.0598
  2.2831  2.2831  1.3653  0.9162  0.2435  0.6538  0.6538  0.4654  0.6742

 Free energy of the ion-electron system (eV)
  ---------------------------------------------------
  alpha Z        PSCENC =       995.60021138
  Ewald energy   TEWEN  =    113073.54044905
  -Hartree energ DENC   =   -147903.70443161
  -exchange      EXHF   =         0.00000000
  -V(xc)+E(xc)   XCENC  =       561.10969544
  PAW double counting   =     36796.03561210   -36048.84633364
  entropy T*S    EENTRO =        -0.03012033
  eigenvalues    EBANDS =     -1359.99500497
  atomic energy  EATOM  =     33771.16187166
  Solvation  Ediel_sol  =         0.00000000
  ---------------------------------------------------
  free energy    TOTEN  =      -115.12805092 eV

  energy without entropy =     -115.09793059  energy(sigma->0) =     -115.11801081


--------------------------------------------------------------------------------------------------------




--------------------------------------- Iteration      1(  15)  ---------------------------------------


    POTLOK:  cpu time      0.0440: real time      0.0442
    SETDIJ:  cpu time      0.0112: real time      0.0113
    EDDIAG:  cpu time      0.5744: real time      0.5770
  RMM-DIIS:  cpu time      2.5336: real time      2.5465
    ORTHCH:  cpu time      0.0874: real time      0.0878
       DOS:  cpu time      0.0010: real time      0.0010
    CHARGE:  cpu time      0.1536: real time      0.1542
    MIXING:  cpu time      0.0014: real time      0.0015
    --------------------------------------------
      LOOP:  cpu time      3.4066: real time      3.4234

 eigenvalue-minimisations  :  3360
 total energy-change (2. order) : 0.2323592E-02  (-0.1270319E-02)
 number of electron     401.9999993 magnetization 
 augmentation part      145.6351095 magnetization 

 DIPCOR: dipole corrections for dipol
 direction  3 min pos   225,
 dipolmoment           0.000000      0.000000      0.114567 electrons x Angstroem
 Tr[quadrupol]     -4953.341041

 energy correction for charged system         0.000000 eV
 dipol+quadrupol energy correction           -0.000763 eV
 added-field ion interaction          5.199939 eV  (added to PSCEN)


 Broyden mixing:
  rms(total) = 0.18768E-01    rms(broyden)= 0.18553E-01
  rms(prec ) = 0.19779E-01
  weight for this iteration     100.00

 eigenvalues of (default mixing * dielectric matrix)
  average eigenvalue GAMMA=   1.1276
  2.5341  1.9576  1.9576  1.0476  1.0476  0.2435  0.6556  0.6556  0.4663  0.7108

 Free energy of the ion-electron system (eV)
  ---------------------------------------------------
  alpha Z        PSCENC =       995.83350385
  Ewald energy   TEWEN  =    113073.54044905
  -Hartree energ DENC   =   -147904.82390030
  -exchange      EXHF   =         0.00000000
  -V(xc)+E(xc)   XCENC  =       561.19818913
  PAW double counting   =     36797.81800259   -36050.30219875
  entropy T*S    EENTRO =        -0.03125892
  eigenvalues    EBANDS =     -1359.52038564
  atomic energy  EATOM  =     33771.16187166
  Solvation  Ediel_sol  =         0.00000000
  ---------------------------------------------------
  free energy    TOTEN  =      -115.12572733 eV

  energy without entropy =     -115.09446841  energy(sigma->0) =     -115.11530769


--------------------------------------------------------------------------------------------------------




--------------------------------------- Iteration      1(  16)  ---------------------------------------


    POTLOK:  cpu time      0.0441: real time      0.0443
    SETDIJ:  cpu time      0.0117: real time      0.0117
    EDDIAG:  cpu time      0.5746: real time      0.5772
  RMM-DIIS:  cpu time      2.4284: real time      2.4406
    ORTHCH:  cpu time      0.0888: real time      0.0892
       DOS:  cpu time      0.0010: real time      0.0010
    CHARGE:  cpu time      0.1534: real time      0.1540
    MIXING:  cpu time      0.0015: real time      0.0015
    --------------------------------------------
      LOOP:  cpu time      3.3035: real time      3.3195

 eigenvalue-minimisations  :  3200
 total energy-change (2. order) :-0.2072369E-02  (-0.1832606E-03)
 number of electron     401.9999993 magnetization 
 augmentation part      145.6432209 magnetization 

 DIPCOR: dipole corrections for dipol
 direction  3 min pos   226,
 dipolmoment           0.000000      0.000000      0.109861 electrons x Angstroem
 Tr[quadrupol]     -4953.398926

 energy correction for charged system         0.000000 eV
 dipol+quadrupol energy correction           -0.000702 eV
 added-field ion interaction          5.358467 eV  (added to PSCEN)


 Broyden mixing:
  rms(total) = 0.19872E-01    rms(broyden)= 0.19870E-01
  rms(prec ) = 0.23295E-01
  weight for this iteration     100.00

 eigenvalues of (default mixing * dielectric matrix)
  average eigenvalue GAMMA=   1.1771
  2.7350  2.2013  2.2013  1.3060  0.2435  0.8918  0.8918  0.6603  0.6603  0.4658
  0.6905

 Free energy of the ion-electron system (eV)
  ---------------------------------------------------
  alpha Z        PSCENC =       995.99209318
  Ewald energy   TEWEN  =    113073.54044905
  -Hartree energ DENC   =   -147905.45171632
  -exchange      EXHF   =         0.00000000
  -V(xc)+E(xc)   XCENC  =       561.17677372
  PAW double counting   =     36804.02582262   -36056.50399687
  entropy T*S    EENTRO =        -0.03087785
  eigenvalues    EBANDS =     -1359.03821889
  atomic energy  EATOM  =     33771.16187166
  Solvation  Ediel_sol  =         0.00000000
  ---------------------------------------------------
  free energy    TOTEN  =      -115.12779970 eV

  energy without entropy =     -115.09692184  energy(sigma->0) =     -115.11750708


--------------------------------------------------------------------------------------------------------




--------------------------------------- Iteration      1(  17)  ---------------------------------------


    POTLOK:  cpu time      0.0435: real time      0.0452
    SETDIJ:  cpu time      0.0119: real time      0.0119
    EDDIAG:  cpu time      0.5747: real time      0.5773
  RMM-DIIS:  cpu time      2.3930: real time      2.4053
    ORTHCH:  cpu time      0.0861: real time      0.0864
       DOS:  cpu time      0.0010: real time      0.0010
    CHARGE:  cpu time      0.1532: real time      0.1537
    MIXING:  cpu time      0.0015: real time      0.0015
    --------------------------------------------
      LOOP:  cpu time      3.2649: real time      3.2824

 eigenvalue-minimisations  :  3157
 total energy-change (2. order) :-0.3121512E-03  (-0.1371213E-03)
 number of electron     401.9999993 magnetization 
 augmentation part      145.6319805 magnetization 

 DIPCOR: dipole corrections for dipol
 direction  3 min pos   227,
 dipolmoment           0.000000      0.000000      0.112839 electrons x Angstroem
 Tr[quadrupol]     -4953.405133

 energy correction for charged system         0.000000 eV
 dipol+quadrupol energy correction           -0.000740 eV
 added-field ion interaction          5.885851 eV  (added to PSCEN)


 Broyden mixing:
  rms(total) = 0.52985E-02    rms(broyden)= 0.52252E-02
  rms(prec ) = 0.57449E-02
  weight for this iteration     100.00

 eigenvalues of (default mixing * dielectric matrix)
  average eigenvalue GAMMA=   1.1312
  2.6143  2.1785  2.1785  1.3179  0.2435  0.9768  0.9768  0.6594  0.6594  0.7259
  0.4657  0.5782

 Free energy of the ion-electron system (eV)
  ---------------------------------------------------
  alpha Z        PSCENC =       996.51943943
  Ewald energy   TEWEN  =    113073.54044905
  -Hartree energ DENC   =   -147905.42883728
  -exchange      EXHF   =         0.00000000
  -V(xc)+E(xc)   XCENC  =       561.20284617
  PAW double counting   =     36806.20128721   -36058.60033977
  entropy T*S    EENTRO =        -0.03127909
  eigenvalues    EBANDS =     -1359.69354923
  atomic energy  EATOM  =     33771.16187166
  Solvation  Ediel_sol  =         0.00000000
  ---------------------------------------------------
  free energy    TOTEN  =      -115.12811185 eV

  energy without entropy =     -115.09683276  energy(sigma->0) =     -115.11768548


--------------------------------------------------------------------------------------------------------




--------------------------------------- Iteration      1(  18)  ---------------------------------------


    POTLOK:  cpu time      0.0438: real time      0.0440
    SETDIJ:  cpu time      0.0116: real time      0.0116
    EDDIAG:  cpu time      0.5758: real time      0.5784
  RMM-DIIS:  cpu time      1.6742: real time      1.6827
    ORTHCH:  cpu time      0.0879: real time      0.0883
       DOS:  cpu time      0.0010: real time      0.0010
    CHARGE:  cpu time      0.1535: real time      0.1541
    MIXING:  cpu time      0.0015: real time      0.0015
    --------------------------------------------
      LOOP:  cpu time      2.5492: real time      2.5614

 eigenvalue-minimisations  :  2075
 total energy-change (2. order) :-0.2294014E-03  (-0.1930073E-04)
 number of electron     401.9999993 magnetization 
 augmentation part      145.6324723 magnetization 

 DIPCOR: dipole corrections for dipol
 direction  3 min pos   228,
 dipolmoment           0.000000      0.000000      0.114531 electrons x Angstroem
 Tr[quadrupol]     -4953.419891

 energy correction for charged system         0.000000 eV
 dipol+quadrupol energy correction           -0.000763 eV
 added-field ion interaction          6.362031 eV  (added to PSCEN)


 Broyden mixing:
  rms(total) = 0.34698E-02    rms(broyden)= 0.34662E-02
  rms(prec ) = 0.42348E-02
  weight for this iteration     100.00

 eigenvalues of (default mixing * dielectric matrix)
  average eigenvalue GAMMA=   1.2090
  3.2194  2.0497  2.0497  1.9047  1.1367  1.1367  0.2435  0.6602  0.6602  0.4658
  0.7684  0.7684  0.6534

 Free energy of the ion-electron system (eV)
  ---------------------------------------------------
  alpha Z        PSCENC =       996.99559624
  Ewald energy   TEWEN  =    113073.54044905
  -Hartree energ DENC   =   -147905.21903449
  -exchange      EXHF   =         0.00000000
  -V(xc)+E(xc)   XCENC  =       561.20169189
  PAW double counting   =     36805.59709498   -36057.99224647
  entropy T*S    EENTRO =        -0.03126487
  eigenvalues    EBANDS =     -1360.38249923
  atomic energy  EATOM  =     33771.16187166
  Solvation  Ediel_sol  =         0.00000000
  ---------------------------------------------------
  free energy    TOTEN  =      -115.12834125 eV

  energy without entropy =     -115.09707638  energy(sigma->0) =     -115.11791962
[...]
    151      -2.0979      2.00000
    152      -2.0748      2.00000
    153      -2.0492      2.00000
    154      -2.0338      2.00000
    155      -2.0121      2.00000
    156      -1.9493      2.00000
    157      -1.9069      2.00000
    158      -1.8939      2.00000
    159      -1.8641      2.00000
    160      -1.8325      2.00000
    161      -1.8192      2.00000
    162      -1.7490      2.00000
    163      -1.7322      2.00000
    164      -1.6916      2.00000
    165      -1.6794      2.00000
    166      -1.6690      2.00000
    167      -1.6288      2.00000
    168      -1.6149      2.00000
    169      -1.5931      2.00000
    170      -1.5731      2.00000
    171      -1.5577      2.00000
    172      -1.5447      2.00000
    173      -1.5376      2.00000
    174      -1.5206      2.00000
    175      -1.5180      2.00000
    176      -1.5055      2.00000
    177      -1.4839      2.00000
    178      -1.4787      2.00000
    179      -1.4333      2.00000
    180      -1.4084      2.00000
    181      -1.3770      2.00000
    182      -1.3683      2.00000
    183      -1.3472      2.00000
    184      -1.3377      2.00000
    185      -1.3233      2.00000
    186      -1.2598      2.00000
    187      -1.2356      2.00000
    188      -1.1963      2.00000
    189      -1.0387      2.00000
    190      -0.9965      2.00000
    191      -0.8941      2.00000
    192      -0.8175      2.00000
    193      -0.7320      2.00000
    194      -0.5722      2.00000
    195      -0.3928      2.00000
    196      -0.2468      2.00000
    197       0.0578      2.00000
    198       0.3301      2.07046
    199       0.3851      1.87160
    200       0.4658      0.71654
    201       0.4958      0.29338
    202       0.7416     -0.00028
    203       0.8196     -0.00000
    204       0.9560     -0.00000
    205       1.0063     -0.00000
    206       1.1305     -0.00000
    207       1.2589     -0.00000
    208       1.4767     -0.00000
    209       1.9338     -0.00000
    210       2.1316     -0.00000
    211       2.1607     -0.00000
    212       2.2142     -0.00000
    213       2.4183     -0.00000
    214       2.4638      0.00000
    215       2.6813      0.00000
    216       2.7871      0.00000
    217       2.8726      0.00000
    218       2.9426      0.00000
    219       3.1628      0.00000
    220       3.2113      0.00000
    221       3.4581      0.00000
    222       3.6114      0.00000
    223       3.9726      0.00000
    224       4.0257      0.00000
    225       4.1502      0.00000
    226       4.3474      0.00000
    227       4.5128      0.00000
    228       4.7289      0.00000
    229       4.9209      0.00000
    230       5.3233      0.00000
    231       5.4281      0.00000
    232       5.5165      0.00000
    233       5.7327      0.00000
    234       5.7804      0.00000
    235       5.8744      0.00000
    236       5.9015      0.00000
    237       5.9325      0.00000
    238       6.0104      0.00000
    239       6.0660      0.00000
    240       6.1647      0.00000
    241       6.6188      0.00000
    242       6.6931      0.00000


--------------------------------------------------------------------------------------------------------


 soft charge-density along one line, spin component           1
         0         1         2         3         4         5         6         7         8         9
 total charge-density along one line

 pseudopotential strength for first ion, spin component:           1
 -7.439   0.000  -0.002  -0.004  -0.000  -7.600   0.000  -0.002
  0.000  -7.409   0.000   0.001  -0.004   0.000  -7.571   0.000
 -0.002   0.000  -7.408   0.000  -0.001  -0.002   0.000  -7.569
 -0.004   0.001   0.000  -7.408   0.000  -0.004   0.001   0.000
 -0.000  -0.004  -0.001   0.000  -7.439  -0.000  -0.004  -0.001
 -7.600   0.000  -0.002  -0.004  -0.000  -7.744   0.000  -0.001
  0.000  -7.571   0.000   0.001  -0.004   0.000  -7.715   0.000
 -0.002   0.000  -7.569   0.000  -0.001  -0.001   0.000  -7.714
 -0.004   0.001   0.000  -7.569   0.000  -0.004   0.001   0.000
 -0.000  -0.004  -0.001   0.000  -7.599  -0.000  -0.004  -0.001
 -0.001  -0.000  -0.013  -0.000  -0.000  -0.001  -0.000  -0.013
 -0.001  -0.000  -0.018  -0.000  -0.000  -0.001  -0.000  -0.018
 -0.001  -0.004   0.000   0.000   0.000  -0.000  -0.004   0.000
  0.000  -0.000  -0.006  -0.000   0.000   0.000  -0.000  -0.006
 -0.000   0.000   0.000  -0.004  -0.001  -0.000   0.000   0.000
 -0.001  -0.004   0.000  -0.000   0.001  -0.001  -0.004   0.000
 -0.000  -0.000  -0.007  -0.001  -0.000  -0.000  -0.000  -0.006
 -0.000  -0.000   0.000  -0.004  -0.001  -0.000  -0.000   0.000
 total augmentation occupancy for first ion, spin component:           1
  4.085  -0.002  -0.016   0.017  -0.002  -2.061   0.002   0.012  -0.073   0.001   0.008  -0.001   0.001   0.003  -0.030  -0.000
 -0.002   3.659   0.008   0.004   0.020   0.002  -1.464  -0.006  -0.003  -0.074   0.002   0.001  -0.144  -0.001  -0.001   0.003
 -0.016   0.008   4.145   0.013  -0.010   0.012  -0.006  -1.994  -0.009   0.007   0.560  -0.057   0.001  -0.232   0.002   0.000
  0.017   0.004   0.013   3.665  -0.002  -0.072  -0.003  -0.009  -1.469   0.002   0.003   0.002  -0.001  -0.002  -0.146   0.000
 -0.002   0.020  -0.010  -0.002   4.088   0.001  -0.075   0.007   0.002  -2.064   0.005  -0.000  -0.030   0.002   0.001   0.001
 -2.061   0.002   0.012  -0.072   0.001   1.953  -0.001  -0.008   0.113  -0.001  -0.005  -0.001  -0.000  -0.002   0.030   0.000
  0.002  -1.464  -0.006  -0.003  -0.075  -0.001   1.230   0.004   0.002   0.115  -0.001  -0.001   0.139   0.001   0.001  -0.006
  0.012  -0.006  -1.994  -0.009   0.007  -0.008   0.004   1.788   0.006  -0.005  -0.514   0.078  -0.001   0.242  -0.002   0.000
 -0.073  -0.003  -0.009  -1.469   0.002   0.113   0.002   0.006   1.233  -0.001  -0.002  -0.001   0.001   0.002   0.140  -0.000
  0.001  -0.074   0.007   0.002  -2.064  -0.001   0.115  -0.005  -0.001   1.954  -0.003  -0.001   0.030  -0.001  -0.000  -0.001
  0.008   0.002   0.560   0.003   0.005  -0.005  -0.001  -0.514  -0.002  -0.003   2.203  -0.483   0.000   0.135   0.001  -0.000
 -0.001   0.001  -0.057   0.002  -0.000  -0.001  -0.001   0.078  -0.001  -0.001  -0.483   0.155   0.000  -0.058   0.001   0.000
  0.001  -0.144   0.001  -0.001  -0.030  -0.000   0.139  -0.001   0.001   0.030   0.000   0.000   0.150  -0.001   0.001  -0.005
  0.003  -0.001  -0.232  -0.002   0.002  -0.002   0.001   0.242   0.002  -0.001   0.135  -0.058  -0.001   0.087  -0.001   0.000
 -0.030  -0.001   0.002  -0.146   0.001   0.030   0.001  -0.002   0.140  -0.000   0.001   0.001   0.001  -0.001   0.151  -0.000
 -0.000   0.003   0.000   0.000   0.001   0.000  -0.006   0.000  -0.000  -0.001  -0.000   0.000  -0.005   0.000  -0.000   0.000
 -0.000  -0.000   0.000  -0.000  -0.000   0.000   0.000  -0.007   0.000   0.000  -0.008   0.003   0.000  -0.003   0.000  -0.000
  0.001   0.000   0.000   0.003  -0.000  -0.001  -0.000   0.000  -0.006   0.000  -0.000   0.000  -0.000   0.000  -0.005  -0.000


------------------------ aborting loop because EDIFF is reached ----------------------------------------


    CHARGE:  cpu time      0.1531: real time      0.1537
    FORLOC:  cpu time      0.0062: real time      0.0063
    FORNL :  cpu time      0.6947: real time      0.6978
    STRESS:  cpu time      2.0762: real time      2.0854
    FORCOR:  cpu time      0.0492: real time      0.0494
    FORHAR:  cpu time      0.0143: real time      0.0143
    MIXING:  cpu time      0.0017: real time      0.0017
    OFIELD:  cpu time      0.0000: real time      0.0000

  FORCE on cell =-STRESS in cart. coord.  units (eV):
  Direction    XX          YY          ZZ          XY          YZ          ZX
  --------------------------------------------------------------------------------------
  Alpha Z   990.63433   990.63433   990.63433
  Ewald  136181.83042136252.86705************   -53.54167   -17.13357   -21.39159
  Hartree144821.14459144851.19067************   -22.62340    -6.04721    -7.50741
  E(xc)   -1807.63744 -1807.46100 -1814.78550    -0.13306    -0.02884    -0.03083
  Local  ************************293867.96115    72.51366    21.84443    27.25091
  n-local   -73.94514   -73.83929   -54.42561    -0.20128    -0.27366    -0.44150
  augment  2440.75580  2439.78714  2456.53105     0.73809     0.34796     0.43170
  Kinetic  5630.46709  5627.33286  5683.45758     2.42175     0.64336     0.77755
  Fock        0.00000     0.00000     0.00000     0.00000     0.00000     0.00000
  -------------------------------------------------------------------------------------
  Total     -15.85391   -14.84650    -0.52269    -0.82591    -0.64754    -0.91117
  in kB     -16.32090   -15.28382    -0.53809    -0.85024    -0.66662    -0.93801
  external pressure =      -10.71 kB  Pullay stress =        0.00 kB


 VOLUME and BASIS-vectors are now :
 -----------------------------------------------------------------------------
  energy-cutoff  :      400.00
  volume of cell :     1556.33
      direct lattice vectors                 reciprocal lattice vectors
     8.803479426  0.000000000  0.000000000     0.113591451 -0.065582055  0.000000000
     4.401739713  7.624036824  0.000000000     0.000000000  0.131164109  0.000000000
     0.000000000  0.000000000 23.188010851     0.000000000  0.000000000  0.043125735

  length of vectors
     8.803479426  8.803479426 23.188010851     0.131164109  0.131164109  0.043125735


 FORCES acting on ions
    electron-ion (+dipol)            ewald-force                    non-local-force                 convergence-correction
 -----------------------------------------------------------------------------------------------
   -.317E+00 -.201E+00 0.260E+04   0.371E+00 0.229E+00 -.260E+04   -.389E-01 -.205E-01 -.469E+00   -.111E-03 -.109E-03 0.196E-01
   0.262E+00 -.182E+00 0.260E+04   -.338E+00 0.208E+00 -.260E+04   0.552E-01 -.133E-01 -.415E+00   0.290E-03 -.259E-03 0.198E-01
   0.662E-01 0.143E+00 0.260E+04   -.304E-01 -.267E+00 -.260E+04   -.308E-01 0.104E+00 -.346E+00   -.209E-03 -.144E-03 0.199E-01
   -.146E-01 0.309E+00 0.260E+04   -.100E-02 -.390E+00 -.260E+04   0.163E-01 0.549E-01 -.414E+00   -.619E-04 0.414E-03 0.198E-01
   0.488E+00 0.281E+00 0.260E+04   -.523E+00 -.302E+00 -.260E+04   0.334E-01 0.199E-01 -.248E+00   0.105E-03 0.700E-04 0.197E-01
   -.499E+00 0.272E+00 0.260E+04   0.525E+00 -.288E+00 -.260E+04   -.197E-01 0.127E-01 -.272E+00   -.753E-04 0.166E-03 0.200E-01
   0.173E+00 -.702E-02 0.260E+04   -.259E+00 0.101E+00 -.260E+04   0.720E-01 -.795E-01 -.344E+00   -.241E-03 -.116E-03 0.199E-01
   -.139E-01 -.555E+00 0.260E+04   0.140E-01 0.585E+00 -.260E+04   0.109E-03 -.234E-01 -.272E+00   0.121E-03 -.112E-03 0.200E-01
   -.161E+00 -.783E-01 0.260E+04   0.243E+00 0.128E+00 -.260E+04   -.665E-01 -.410E-01 -.293E+00   0.108E-03 0.483E-04 0.202E-01
   -.136E+00 -.326E+00 0.900E+03   0.120E+00 0.309E+00 -.900E+03   0.256E-01 0.276E-01 -.317E+00   -.350E-04 -.335E-04 0.594E-01
   0.504E+01 -.163E+00 0.905E+03   -.497E+01 0.149E+00 -.905E+03   -.738E-01 0.328E-01 -.237E+00   -.494E-03 0.347E-03 0.593E-01
   -.481E+01 -.479E+00 0.905E+03   0.469E+01 0.527E+00 -.904E+03   0.110E+00 -.150E-01 -.312E+00   0.489E-03 0.392E-03 0.593E-01
   0.264E+01 0.423E+01 0.905E+03   -.261E+01 -.416E+01 -.905E+03   -.187E-01 -.682E-01 -.230E+00   0.474E-04 -.588E-03 0.593E-01
   0.591E+00 0.277E+00 0.908E+03   -.587E+00 -.279E+00 -.907E+03   -.149E-01 0.317E-03 -.373E+00   0.675E-04 0.656E-04 0.591E-01
   -.303E+01 0.367E+01 0.904E+03   0.300E+01 -.358E+01 -.904E+03   0.254E-01 -.960E-01 -.313E+00   -.142E-03 -.391E-03 0.592E-01
   -.268E+01 -.416E+01 0.905E+03   0.267E+01 0.403E+01 -.904E+03   0.368E-01 0.118E+00 -.320E+00   0.641E-03 0.225E-03 0.594E-01
   0.168E+01 -.456E+01 0.904E+03   -.162E+01 0.448E+01 -.904E+03   -.759E-01 0.886E-01 -.324E+00   -.445E-03 0.737E-04 0.592E-01
   0.286E+00 0.131E-01 0.900E+03   -.335E+00 -.439E-01 -.899E+03   0.388E-01 0.293E-01 -.585E+00   -.188E-03 -.105E-03 0.591E-01
   0.768E+00 0.786E+00 -.827E+03   -.623E+00 -.912E+00 0.827E+03   -.131E+00 0.121E+00 0.224E+00   -.160E-02 0.671E-03 0.582E-01
   0.167E+01 0.839E+00 -.828E+03   -.178E+01 -.892E+00 0.827E+03   0.122E+00 0.586E-01 0.299E+00   0.119E-02 0.694E-03 0.576E-01
   -.231E+01 -.333E+01 -.788E+03   0.224E+01 0.315E+01 0.787E+03   0.842E-01 0.180E+00 0.558E+00   0.297E-03 0.535E-03 0.620E-01
   -.918E+00 -.124E+02 -.795E+03   0.100E+01 0.118E+02 0.795E+03   -.779E-01 0.604E+00 -.201E+00   -.220E-03 0.189E-02 0.609E-01
   -.399E+01 -.245E+00 -.788E+03   0.379E+01 0.278E+00 0.787E+03   0.205E+00 -.186E-01 0.557E+00   0.632E-03 0.457E-04 0.621E-01
   0.247E+01 0.149E+01 -.783E+03   -.240E+01 -.145E+01 0.782E+03   -.392E-01 -.244E-01 0.567E+00   -.424E-03 -.200E-03 0.621E-01
   0.695E+01 0.386E+01 -.800E+03   -.659E+01 -.365E+01 0.799E+03   -.328E+00 -.190E+00 0.356E+00   -.123E-02 -.726E-03 0.615E-01
   0.114E+01 0.402E+00 -.826E+03   -.118E+01 -.207E+00 0.826E+03   0.450E-01 -.184E+00 0.220E+00   -.225E-03 -.176E-02 0.583E-01
   -.114E+02 0.589E+01 -.794E+03   0.110E+02 -.551E+01 0.794E+03   0.487E+00 -.383E+00 -.197E+00   0.147E-02 -.112E-02 0.609E-01
   0.636E+02 0.367E+02 -.250E+04   -.655E+02 -.378E+02 0.250E+04   0.182E+01 0.105E+01 0.550E+00   -.255E-02 -.152E-02 0.171E-01
   -.628E+02 0.484E+02 -.248E+04   0.642E+02 -.492E+02 0.248E+04   -.130E+01 0.752E+00 -.237E+00   0.225E-02 -.164E-02 0.171E-01
   -.992E+00 -.759E+01 -.253E+04   0.124E+01 0.758E+01 0.253E+04   -.212E+00 0.215E-01 0.205E+00   0.101E-02 -.143E-02 0.197E-01
   0.103E+02 -.786E+02 -.248E+04   -.103E+02 0.802E+02 0.248E+04   0.224E-01 -.151E+01 -.250E+00   -.283E-03 0.282E-02 0.171E-01
   -.171E+02 -.965E+01 -.250E+04   0.180E+02 0.102E+02 0.250E+04   -.917E+00 -.539E+00 0.964E+00   0.489E-02 0.286E-02 0.214E-01
   0.121E+02 -.962E+01 -.251E+04   -.127E+02 0.975E+01 0.251E+04   0.603E+00 -.117E+00 0.653E+00   -.468E-02 0.244E-02 0.209E-01
   -.683E+01 0.295E+01 -.253E+04   0.694E+01 -.273E+01 0.253E+04   -.926E-01 -.196E+00 0.204E+00   -.675E-03 0.157E-02 0.196E-01
   -.257E+01 0.153E+02 -.251E+04   0.240E+01 -.159E+02 0.251E+04   0.203E+00 0.568E+00 0.654E+00   -.273E-03 -.525E-02 0.209E-01
   0.697E+01 0.404E+01 -.251E+04   -.696E+01 -.404E+01 0.251E+04   0.351E-01 0.199E-01 0.291E+00   0.873E-03 0.487E-03 0.203E-01
   0.203E+01 0.150E+01 -.170E+04   -.312E+01 -.217E+01 0.172E+04   0.651E+00 0.419E+00 -.229E+02   -.464E-03 -.244E-03 -.158E-01
 -----------------------------------------------------------------------------------------------
   -.126E+01 -.764E+00 0.222E+02   0.105E-12 -.154E-12 0.955E-11   0.125E+01 0.762E+00 -.236E+02   -.144E-03 0.589E-04 0.141E+01


 POSITION                                       TOTAL-FORCE (eV/Angst)
 -----------------------------------------------------------------------------------
      0.00000      0.00000      0.00000         0.015495      0.008032     -0.048181
      2.93449      0.00000      0.00000        -0.020151      0.011923     -0.058231
      5.86899      0.00000      0.00000         0.005192     -0.020507     -0.075448
      1.46725      2.54135      0.00000         0.000988     -0.025065     -0.057963
      4.40174      2.54135      0.00000        -0.001122     -0.001331     -0.064683
      7.33623      2.54135      0.00000         0.006274     -0.003404     -0.059050
      2.93449      5.08269      0.00000        -0.014157      0.014146     -0.074537
      5.86899      5.08269      0.00000         0.000542      0.006483     -0.058887
      8.80348      5.08269      0.00000         0.015105      0.008582     -0.068554
      1.46725      0.84712      2.39600         0.009829      0.010663      0.127093
      4.40174      0.84712      2.39600         0.000718      0.019166      0.048915
      7.33623      0.84712      2.39600        -0.004981      0.032564      0.046806
      2.93449      3.38846      2.39600         0.012371     -0.003806      0.051723
      5.86899      3.38846      2.39600        -0.010099     -0.001731     -0.006822
      8.80348      3.38846      2.39600        -0.010100     -0.009972      0.045159
      4.40174      5.92981      2.39600         0.023196     -0.013657      0.044217
      7.33623      5.92981      2.39600        -0.015798      0.003113      0.041529
     10.27073      5.92981      2.39600        -0.010672     -0.001562      0.224315
      8.82233      1.70009      4.81963         0.012518     -0.003998      0.013417
      2.92119      1.69785      4.82331         0.015989      0.006007      0.008611
      5.86795      1.68560      4.75707         0.019065      0.001034     -0.011943
     10.27776      4.22466      4.78745         0.007880      0.017985     -0.002071
      4.38657      4.25200      4.75675         0.010083      0.014967     -0.011862
      7.33901      4.24595      4.74921         0.032908      0.018508      0.006241
     11.77250      6.80453      4.78059         0.035926      0.022279      0.035847
      5.87612      6.80488      4.81888         0.003922      0.010049      0.012345
      8.78880      6.80465      4.78673         0.020786     -0.006156     -0.002026
      8.81063      0.01752      7.28684        -0.020748     -0.011583      0.109129
      7.53608      7.56570      7.26462         0.063217      0.016620     -0.025855
      5.95520      0.02219      7.18497         0.037617      0.007165     -0.005519
     10.30281      2.76694      7.26810         0.051915      0.043954     -0.033752
      4.46263      2.59143      7.13405         0.019804      0.008694     -0.025458
      7.33262      2.57850      7.14867         0.022912      0.019701     -0.015468
      2.98578      5.16561      7.18616         0.022029      0.026466     -0.007115
      5.88801      5.08364      7.14769         0.029363      0.004400     -0.013405
      8.83067      5.11440      7.13915         0.047101      0.022417      0.038008
      1.71348      1.00414      8.41713        -0.434916     -0.252148     -0.126524
 -----------------------------------------------------------------------------------
    total drift:                               -0.010676     -0.002294     -0.015874


--------------------------------------------------------------------------------------------------------



  FREE ENERGIE OF THE ION-ELECTRON SYSTEM (eV)
  ---------------------------------------------------
  free  energy   TOTEN  =      -115.12915351 eV

  energy  without entropy=     -115.09791649  energy(sigma->0) =     -115.11874117



--------------------------------------------------------------------------------------------------------


    POTLOK:  cpu time      0.0536: real time      0.0539


--------------------------------------------------------------------------------------------------------


     LOOP+:  cpu time     74.6594: real time     75.0774
 vacuum level on the upper side and lower side of the slab         5.926         5.497
    4ORBIT:  cpu time      0.0000: real time      0.0000

 total amount of memory used by VASP MPI-rank0    61944. kBytes
=======================================================================

   base      :      30000. kBytes
   nonlr-proj:       5465. kBytes
   fftplans  :       4620. kBytes
   grid      :       7634. kBytes
   one-center:         31. kBytes
   wavefun   :      14194. kBytes

  
  
 General timing and accounting informations for this job:
 ========================================================
  
                  Total CPU time used (sec):       77.602
                            User time (sec):       75.462
                          System time (sec):        2.140
                         Elapsed time (sec):       78.822
  
                   Maximum memory used (kb):      338176.
                   Average memory used (kb):          N/A
  
                          Minor page faults:        93683
                          Major page faults:           96
                 Voluntary context switches:         2023
