 running   48 mpi-ranks, with    1 threads/rank, on    1 nodes
 distrk:  each k-point on   48 cores,    1 groups
 distr:  one band on   24 cores,    2 groups
 vasp.6.4.3 19Mar24 (build Oct  2 2024 09:01:45) complex                         
 POSCAR found type information on POSCAR AuO 
 POSCAR found :  2 types and      37 ions
 scaLAPACK will be used
 LDA part: xc-table for (Slater+PW92), standard interpolation
 POSCAR, INCAR and KPOINTS ok, starting setup
 FFT: planning ... GRIDC
 FFT: planning ... GRID_SOFT
 FFT: planning ... GRID
 WAVECAR not read
 WARNING: random wavefunctions but no delay for mixing, default for NELMDL
 entering main loop
       N       E                     dE             d eps       ncg     rms          rms(c)
DAV:   1     0.247554249667E+04    0.24755E+04   -0.15921E+05  2904   0.117E+03
DAV:   2     0.347538065819E+02   -0.24408E+04   -0.22527E+04  3352   0.271E+02
DAV:   3    -0.122589639992E+03   -0.15734E+03   -0.15007E+03  3312   0.623E+01
DAV:   4    -0.126862672580E+03   -0.42730E+01   -0.42362E+01  3216   0.103E+01
DAV:   5    -0.127017482141E+03   -0.15481E+00   -0.15444E+00  3432   0.196E+00    0.446E+01
RMM:   6    -0.120577789721E+03    0.64397E+01   -0.30240E+01  3129   0.116E+01    0.366E+01
RMM:   7    -0.134106382120E+03   -0.13529E+02   -0.36223E+01  3359   0.777E+00    0.319E+01
RMM:   8    -0.134746387342E+03   -0.64001E+00   -0.31549E+01  3414   0.814E+00    0.251E+01
RMM:   9    -0.118126211591E+03    0.16620E+02   -0.12442E+01  3280   0.579E+00    0.113E+01
RMM:  10    -0.115341861912E+03    0.27843E+01   -0.59794E+00  3298   0.435E+00    0.416E+00
RMM:  11    -0.115360516883E+03   -0.18655E-01   -0.11155E+00  3260   0.161E+00    0.516E+00
RMM:  12    -0.115238190223E+03    0.12233E+00   -0.55093E-01  3216   0.119E+00    0.201E+00
RMM:  13    -0.115174102041E+03    0.64088E-01   -0.41199E-02  3182   0.413E-01    0.142E+00
RMM:  14    -0.115128050920E+03    0.46051E-01   -0.30288E-02  3247   0.323E-01    0.517E-01
RMM:  15    -0.115125727328E+03    0.23236E-02   -0.12703E-02  3360   0.160E-01    0.188E-01
RMM:  16    -0.115127799697E+03   -0.20724E-02   -0.18326E-03  3200   0.717E-02    0.199E-01
RMM:  17    -0.115128111848E+03   -0.31215E-03   -0.13712E-03  3157   0.480E-02    0.530E-02
RMM:  18    -0.115128341249E+03   -0.22940E-03   -0.19301E-04  2075   0.206E-02    0.347E-02
RMM:  19    -0.115128879662E+03   -0.53841E-03   -0.17020E-04  2069   0.183E-02    0.129E-02
RMM:  20    -0.115129013066E+03   -0.13340E-03   -0.45464E-05  1830   0.968E-03    0.150E-02
RMM:  21    -0.115129136614E+03   -0.12355E-03   -0.28151E-05  1497   0.729E-03    0.131E-02
RMM:  22    -0.115129153512E+03   -0.16898E-04   -0.38068E-06   721   0.450E-03
   1 F= -.11512915E+03 E0= -.11511874E+03  d E =-.312370E-01
