<?xml version="1.0" encoding="ISO-8859-1"?>
<modeling>
 <generator>
  <i name="program" type="string">vasp </i>
  <i name="version" type="string">6.4.3  </i>
  <i name="subversion" type="string">19Mar24 (build Oct  2 2024 09:01:45) complex                          parallel </i>
  <i name="platform" type="string">LinuxGNU </i>
  <i name="date" type="string">2025 02 17 </i>
  <i name="time" type="string">19:34:24 </i>
 </generator>
 <incar>
  <i type="string" name="PREC">Accurate</i>
  <i type="string" name="ALGO">Fast</i>
  <i type="int" name="ICHARG">     2</i>
  <i type="int" name="IBRION">    -1</i>
  <i name="EDIFF">      0.00010000</i>
  <i name="EDIFFG">     -0.03000000</i>
  <i type="int" name="ISYM">     0</i>
  <i name="ENCUT">    400.00000000</i>
  <i type="string" name="LREAL">Auto</i>
  <i type="int" name="ISMEAR">     1</i>
  <i name="SIGMA">      0.10000000</i>
  <i type="logical" name="LWAVE"> F  </i>
  <i type="logical" name="LCHARG"> F  </i>
  <i type="string" name="GGA">PE</i>
  <i type="logical" name="LDIPOL"> T  </i>
  <i type="int" name="IDIPOL">     3</i>
 </incar>
 <primitive_cell>
  <structure name="primitive_cell" >
   <crystal>
    <varray name="basis" >
     <v>       8.80347943       0.00000000       0.00000000 </v>
     <v>       4.40173971       7.62403682       0.00000000 </v>
     <v>       0.00000000       0.00000000      23.18801085 </v>
    </varray>
    <i name="volume">   1556.33410245 </i>
    <varray name="rec_basis" >
     <v>       0.11359145      -0.06558205       0.00000000 </v>
     <v>       0.00000000       0.13116411       0.00000000 </v>
     <v>       0.00000000       0.00000000       0.04312573 </v>
    </varray>
   </crystal>
   <varray name="positions" >
    <v>       0.00000000       0.00000000       0.00000000 </v>
    <v>       0.33333333       0.00000000       0.00000000 </v>
    <v>       0.66666667       0.00000000       0.00000000 </v>
    <v>       0.00000000       0.33333333       0.00000000 </v>
    <v>       0.33333333       0.33333333       0.00000000 </v>
    <v>       0.66666667       0.33333333       0.00000000 </v>
    <v>       0.00000000       0.66666667       0.00000000 </v>
    <v>       0.33333333       0.66666667       0.00000000 </v>
    <v>       0.66666667       0.66666667       0.00000000 </v>
    <v>       0.11111111       0.11111111       0.10332942 </v>
    <v>       0.44444444       0.11111111       0.10332942 </v>
    <v>       0.77777778       0.11111111       0.10332942 </v>
    <v>       0.11111111       0.44444444       0.10332942 </v>
    <v>       0.44444444       0.44444444       0.10332942 </v>
    <v>       0.77777778       0.44444444       0.10332942 </v>
    <v>       0.11111111       0.77777778       0.10332942 </v>
    <v>       0.44444444       0.77777778       0.10332942 </v>
    <v>       0.77777778       0.77777778       0.10332942 </v>
    <v>       0.89064650       0.22299021       0.20784995 </v>
    <v>       0.22047338       0.22269691       0.20800869 </v>
    <v>       0.55600325       0.22109049       0.20515214 </v>
    <v>       0.89040413       0.55412417       0.20646211 </v>
    <v>       0.21942275       0.55770917       0.20513845 </v>
    <v>       0.55519065       0.55691663       0.20481299 </v>
    <v>       0.89100054       0.89251006       0.20616657 </v>
    <v>       0.22119881       0.89255653       0.20781768 </v>
    <v>       0.55207020       0.89252565       0.20643141 </v>
    <v>       0.99966342       0.00229782       0.31425052 </v>
    <v>       0.35985965       0.99234835       0.31329211 </v>
    <v>       0.67500419       0.00291012       0.30985712 </v>
    <v>       0.98884967       0.36292359       0.31344223 </v>
    <v>       0.33696496       0.33990231       0.30766115 </v>
    <v>       0.66382041       0.33820606       0.30829183 </v>
    <v>       0.00038784       0.67754244       0.30990825 </v>
    <v>       0.33543207       0.66679147       0.30824933 </v>
    <v>       0.66767596       0.67082633       0.30788124 </v>
    <v>       0.12878318       0.13170750       0.36299485 </v>
   </varray>
  </structure>
  <varray name="primitive_index" >
   <v type="int" >        1 </v>
   <v type="int" >        2 </v>
   <v type="int" >        3 </v>
   <v type="int" >        4 </v>
   <v type="int" >        5 </v>
   <v type="int" >        6 </v>
   <v type="int" >        7 </v>
   <v type="int" >        8 </v>
   <v type="int" >        9 </v>
   <v type="int" >       10 </v>
   <v type="int" >       11 </v>
   <v type="int" >       12 </v>
   <v type="int" >       13 </v>
   <v type="int" >       14 </v>
   <v type="int" >       15 </v>
   <v type="int" >       16 </v>
   <v type="int" >       17 </v>
   <v type="int" >       18 </v>
   <v type="int" >       19 </v>
   <v type="int" >       20 </v>
   <v type="int" >       21 </v>
   <v type="int" >       22 </v>
   <v type="int" >       23 </v>
   <v type="int" >       24 </v>
   <v type="int" >       25 </v>
   <v type="int" >       26 </v>
   <v type="int" >       27 </v>
   <v type="int" >       28 </v>
   <v type="int" >       29 </v>
   <v type="int" >       30 </v>
   <v type="int" >       31 </v>
   <v type="int" >       32 </v>
   <v type="int" >       33 </v>
   <v type="int" >       34 </v>
   <v type="int" >       35 </v>
   <v type="int" >       36 </v>
   <v type="int" >       37 </v>
  </varray>
 </primitive_cell>
 <kpoints>
  <generation param="Monkhorst-Pack">
   <v type="int" name="divisions">       2        2        1 </v>
   <v name="usershift">      0.00000000       0.00000000       0.00000000 </v>
   <v name="genvec1">      0.50000000       0.00000000       0.00000000 </v>
   <v name="genvec2">      0.00000000       0.50000000       0.00000000 </v>
   <v name="genvec3">      0.00000000       0.00000000       1.00000000 </v>
   <v name="shift">      0.50000000       0.50000000       0.00000000 </v>
  </generation>
  <varray name="kpointlist" >
   <v>       0.25000000       0.25000000       0.00000000 </v>
   <v>       0.00000000       0.25000000       0.00000000 </v>
   <v>      -0.25000000       0.00000000       0.00000000 </v>
   <v>      -0.25000000       0.25000000       0.00000000 </v>
   <v>       0.50000000      -0.25000000       0.00000000 </v>
   <v>      -0.25000000       0.50000000       0.00000000 </v>
  </varray>
  <varray name="weights" >
   <v>       0.16666667 </v>
   <v>       0.16666667 </v>
   <v>       0.16666667 </v>
   <v>       0.16666667 </v>
   <v>       0.16666667 </v>
   <v>       0.16666667 </v>
  </varray>
 </kpoints>
 <parameters>
  <separator name="general" >
   <i type="string" name="SYSTEM">unknown system</i>
   <i type="logical" name="LCOMPAT"> F  </i>
  </separator>
  <separator name="electronic" >
   <i type="string" name="PREC">accura</i>
   <i name="ENMAX">    400.00000000</i>
   <i name="ENAUG">    605.39200000</i>
   <i name="EDIFF">      0.00010000</i>
   <i type="int" name="IALGO">    68</i>
   <i type="int" name="IWAVPR">    10</i>
   <i type="int" name="NBANDS">   242</i>
   <i type="int" name="NBANDSLOW">    -1</i>
   <i type="int" name="NBANDSHIGH">    -1</i>
   <i name="NELECT">    402.00000000</i>
   <i type="int" name="TURBO">     0</i>
   <i type="int" name="IRESTART">     0</i>
   <i type="int" name="NREBOOT">     0</i>
   <i type="int" name="NMIN">     0</i>
   <i name="EREF">      0.00000000</i>
   <separator name="electronic smearing" >
    <i type="int" name="ISMEAR">     1</i>
    <i name="SIGMA">      0.10000000</i>
    <i name="KSPACING">      0.50000000</i>
    <i type="logical" name="KGAMMA"> T  </i>
    <i type="logical" name="KBLOWUP"> T  </i>
   </separator>
   <separator name="electronic projectors" >
    <i type="logical" name="LREAL"> T  </i>
    <v name="ROPT">     -0.00025000     -0.00025000</v>
    <i type="int" name="LMAXPAW">  -100</i>
    <i type="int" name="LMAXMIX">     2</i>
    <i type="logical" name="NLSPLINE"> F  </i>
   </separator>
   <separator name="electronic startup" >
    <i type="int" name="ISTART">     0</i>
    <i type="int" name="ICHARG">     2</i>
    <i type="int" name="INIWAV">     1</i>
   </separator>
   <separator name="electronic spin" >
    <i type="int" name="ISPIN">     1</i>
    <i type="logical" name="LNONCOLLINEAR"> F  </i>
    <v name="MAGMOM">      1.00000000      1.00000000      1.00000000      1.00000000      1.00000000      1.00000000      1.00000000      1.00000000      1.00000000      1.00000000      1.00000000      1.00000000      1.00000000      1.00000000      1.00000000      1.00000000      1.00000000      1.00000000      1.00000000      1.00000000
      1.00000000      1.00000000      1.00000000      1.00000000      1.00000000      1.00000000      1.00000000      1.00000000      1.00000000      1.00000000      1.00000000      1.00000000      1.00000000      1.00000000      1.00000000      1.00000000      1.00000000</v>
    <i name="NUPDOWN">     -1.00000000</i>
    <i type="logical" name="LSORBIT"> F  </i>
    <v name="SAXIS">      0.00000000      0.00000000      1.00000000</v>
    <i type="logical" name="LSPIRAL"> F  </i>
    <v name="QSPIRAL">      0.00000000      0.00000000      0.00000000</v>
    <i type="logical" name="LZEROZ"> F  </i>
   </separator>
   <separator name="electronic exchange-correlation" >
    <i type="logical" name="LASPH"> F  </i>
   </separator>
   <separator name="electronic convergence" >
    <i type="int" name="NELM">    60</i>
    <i type="int" name="NELMDL">     0</i>
    <i type="int" name="NELMIN">     2</i>
    <i name="ENINI">    400.00000000</i>
    <separator name="electronic convergence detail" >
     <i type="logical" name="LDIAG"> T  </i>
     <i type="logical" name="LSUBROT"> F  </i>
     <i name="WEIMIN">      0.00000000</i>
     <i name="EBREAK">      0.00000010</i>
     <i name="DEPER">      0.30000000</i>
     <i type="int" name="NRMM">     4</i>
     <i name="TIME">      0.40000000</i>
    </separator>
   </separator>
   <separator name="electronic mixer" >
    <i name="AMIX">      0.40000000</i>
    <i name="BMIX">      1.00000000</i>
    <i name="AMIN">      0.10000000</i>
    <i name="AMIX_MAG">      1.60000000</i>
    <i name="BMIX_MAG">      1.00000000</i>
    <separator name="electronic mixer details" >
     <i type="int" name="IMIX">     4</i>
     <i type="logical" name="MIXFIRST"> F  </i>
     <i type="int" name="MAXMIX">   -45</i>
     <i name="WC">    100.00000000</i>
     <i type="int" name="INIMIX">     1</i>
     <i type="int" name="MIXPRE">     1</i>
     <i type="int" name="MREMOVE">     5</i>
    </separator>
   </separator>
   <separator name="electronic dipolcorrection" >
    <i type="logical" name="LDIPOL"> T  </i>
    <i type="logical" name="LMONO"> F  </i>
    <i type="int" name="IDIPOL">     3</i>
    <i name="EPSILON">      1.00000000</i>
    <v name="DIPOL">   -100.00000000   -100.00000000   -100.00000000</v>
    <i name="EFIELD">      0.00000000</i>
    <i type="logical" name="LVACPOTAV"> F  </i>
   </separator>
  </separator>
  <separator name="grids" >
   <i type="int" name="NGX">    60</i>
   <i type="int" name="NGY">    60</i>
   <i type="int" name="NGZ">   160</i>
   <i type="int" name="NGXF">   120</i>
   <i type="int" name="NGYF">   120</i>
   <i type="int" name="NGZF">   320</i>
   <i type="logical" name="ADDGRID"> F  </i>
  </separator>
  <separator name="ionic" >
   <i type="int" name="NSW">     0</i>
   <i type="int" name="IBRION">    -1</i>
   <i type="int" name="MDALGO">     0</i>
   <i type="int" name="ISIF">     2</i>
   <i name="PSTRESS">      0.00000000</i>
   <i name="EDIFFG">     -0.03000000</i>
   <i type="int" name="NFREE">     0</i>
   <i name="POTIM">      0.50000000</i>
   <i name="SMASS">     -3.00000000</i>
   <i name="SCALEE">      1.00000000</i>
  </separator>
  <separator name="ionic md" >
   <i name="TEBEG">      0.00010000</i>
   <i name="TEEND">      0.00010000</i>
   <i type="int" name="NBLOCK">     1</i>
   <i type="int" name="KBLOCK">     1</i>
   <i type="int" name="NPACO">   256</i>
   <i name="APACO">     10.00000000</i>
  </separator>
  <separator name="symmetry" >
   <i type="int" name="ISYM">     0</i>
   <i name="SYMPREC">      0.00001000</i>
  </separator>
  <separator name="dos" >
   <i type="int" name="LORBIT">     0</i>
   <v name="RWIGS">     -1.00000000     -1.00000000</v>
   <i type="int" name="NEDOS">   301</i>
   <i name="EMIN">     10.00000000</i>
   <i name="EMAX">    -10.00000000</i>
   <i name="EFERMI">      0.00000000</i>
  </separator>
  <separator name="writing" >
   <i type="int" name="NWRITE">     2</i>
   <i type="logical" name="LWAVE"> F  </i>
   <i type="logical" name="LDOWNSAMPLE"> F  </i>
   <i type="logical" name="LCHARG"> F  </i>
   <i type="logical" name="LPARD"> F  </i>
   <i type="logical" name="LVTOT"> F  </i>
   <i type="logical" name="LVHAR"> F  </i>
   <i type="logical" name="LELF"> F  </i>
   <i type="logical" name="LOPTICS"> F  </i>
   <v name="STM">      0.00000000      0.00000000      0.00000000      0.00000000      0.00000000      0.00000000      0.00000000</v>
  </separator>
  <separator name="performance" >
   <i type="int" name="NPAR">     2</i>
   <i type="int" name="NSIM">     4</i>
   <i type="int" name="NBLK">    -1</i>
   <i type="logical" name="LPLANE"> T  </i>
   <i type="logical" name="LSCALAPACK"> T  </i>
   <i type="logical" name="LSCAAWARE"> F  </i>
   <i type="logical" name="LSCALU"> F  </i>
   <i type="logical" name="LASYNC"> F  </i>
   <i type="logical" name="LORBITALREAL"> F  </i>
  </separator>
  <separator name="miscellaneous" >
   <i type="int" name="IDIOT">     3</i>
   <i type="int" name="PHON_NSTRUCT">    -1</i>
   <i type="logical" name="LMUSIC"> F  </i>
   <v name="POMASS">    196.96600000     16.00000000</v>
   <v name="DARWINR">      0.00000000      0.00000000</v>
   <v name="DARWINV">      1.00000000      1.00000000</v>
   <i type="logical" name="LCORR"> T  </i>
  </separator>
  <i type="logical" name="GGA_COMPAT"> T  </i>
  <i type="logical" name="LBERRY"> F  </i>
  <i type="int" name="ICORELEVEL">     0</i>
  <i type="logical" name="LDAU"> F  </i>
  <i type="int" name="I_CONSTRAINED_M">     0</i>
  <separator name="electronic exchange-correlation" >
   <i type="string" name="GGA    ">PE</i>
   <i type="string" name="XC_C">1</i>
   <i type="int" name="VOSKOWN">     0</i>
   <i type="logical" name="LHFCALC"> F  </i>
   <i type="string" name="PRECFOCK"></i>
   <i type="logical" name="LSYMGRAD"> F  </i>
   <i type="logical" name="LHFONE"> F  </i>
   <i type="logical" name="LRHFCALC"> F  </i>
   <i type="logical" name="LTHOMAS"> F  </i>
   <i type="logical" name="LMODELHF"> F  </i>
   <i type="logical" name="LFOCKACE"> F  </i>
   <i name="ENCUT4O">     -1.00000000</i>
   <i type="int" name="EXXOEP">     0</i>
   <i type="int" name="FOURORBIT">     0</i>
   <i name="AEXX">      0.00000000</i>
   <i name="HFALPHA">      0.00000000</i>
   <i name="MCALPHA">      0.00000000</i>
   <i name="ALDAX">      1.00000000</i>
   <i name="AGGAX">      1.00000000</i>
   <i name="AMGGAX">      1.00000000</i>
   <i name="ALDAC">      1.00000000</i>
   <i name="AGGAC">      1.00000000</i>
   <i name="AMGGAC">      1.00000000</i>
   <i type="int" name="NKREDX">     1</i>
   <i type="int" name="NKREDY">     1</i>
   <i type="int" name="NKREDZ">     1</i>
   <i type="logical" name="SHIFTRED"> F  </i>
   <i type="logical" name="ODDONLY"> F  </i>
   <i type="logical" name="EVENONLY"> F  </i>
   <i type="int" name="LMAXFOCK">     0</i>
   <i type="int" name="NMAXFOCKAE">     0</i>
   <i type="logical" name="LFOCKAEDFT"> F  </i>
   <i name="HFSCREEN">      0.00000000</i>
   <i name="HFSCREENC">      0.00000000</i>
   <i type="int" name="NBANDSGWLOW">     0</i>
  </separator>
  <separator name="vdW DFT" >
   <i type="logical" name="LUSE_VDW"> F  </i>
   <i type="int" name="IVDW_NL">    -1</i>
   <i type="logical" name="LSPIN_VDW"> F  </i>
   <i name="ZAB_VDW">     -0.84910000</i>
   <i name="GAMMA_VDW">      1.39626340</i>
   <i name="ALPHA_VDW">      0.00000000</i>
   <i name="PARAM1">      0.12340000</i>
   <i name="PARAM2">      1.00000000</i>
   <i name="BPARAM">      6.30000000</i>
   <i name="CPARAM">      0.00930000</i>
  </separator>
  <separator name="model GW" >
   <i type="int" name="MODEL_GW">     0</i>
   <i name="MODEL_EPS0">     25.23785031</i>
   <i name="MODEL_ALPHA">      1.00000000</i>
  </separator>
  <separator name="linear response parameters" >
   <i type="logical" name="LEPSILON"> F  </i>
   <i type="logical" name="LRPA"> F  </i>
   <i type="logical" name="LNABLA"> F  </i>
   <i type="logical" name="LVEL"> F  </i>
   <i name="CSHIFT">      0.10000000</i>
   <i name="OMEGAMAX">     -1.00000000</i>
   <i name="DEG_THRESHOLD">      0.00200000</i>
   <i name="RTIME">     -0.10000000</i>
   <i name="WPLASMAI">      0.00000000</i>
   <v name="DFIELD">      0.00000000      0.00000000      0.00000000</v>
   <v name="WPLASMA">      0.00000000      0.00000000      0.00000000      0.00000000      0.00000000      0.00000000      0.00000000      0.00000000      0.00000000</v>
  </separator>
  <separator name="orbital magnetization" >
   <i type="logical" name="NUCIND"> F  </i>
   <v name="MAGPOS">      0.00000000      0.00000000      0.00000000</v>
   <i type="logical" name="LNICSALL"> T  </i>
   <i type="logical" name="ORBITALMAG"> F  </i>
   <i type="logical" name="LMAGBLOCH"> F  </i>
   <i type="logical" name="LCHIMAG"> F  </i>
   <i type="logical" name="LGAUGE"> T  </i>
   <i type="int" name="MAGATOM">     0</i>
   <v name="MAGDIPOL">      0.00000000      0.00000000      0.00000000</v>
   <v name="AVECCONST">      0.00000000      0.00000000      0.00000000</v>
  </separator>
  <separator name="response functions" >
   <i type="logical" name="LALL_IN_ONE"> F  </i>
   <i type="int" name="IALL_IN_ONE">    -1</i>
   <i type="int" name="NBANDS_WAVE">    -1</i>
   <i type="logical" name="LFINITE_TEMPERATURE"> F  </i>
   <i type="logical" name="LADDER"> F  </i>
   <i type="logical" name="LRPAFORCE"> F  </i>
   <i type="logical" name="LFXC"> F  </i>
   <i type="logical" name="LHARTREE"> T  </i>
   <i type="int" name="IBSE">     0</i>
   <v type="int" name="KPOINT">    -1     0     0     0</v>
   <i type="logical" name="LTCTC"> F  </i>
   <i type="logical" name="LTCTE"> F  </i>
   <i type="logical" name="LTETE"> F  </i>
   <i type="logical" name="LTRIPLET"> F  </i>
   <i type="logical" name="LFXCEPS"> F  </i>
   <i type="logical" name="LFXHEG"> F  </i>
   <i type="int" name="NATURALO">     2</i>
   <i type="logical" name="LHOLEGF"> F  </i>
   <i type="logical" name="L2ORDER"> F  </i>
   <i type="logical" name="LDMP1"> F  </i>
   <i type="logical" name="LMP2LT"> F  </i>
   <i type="logical" name="LSMP2LT"> F  </i>
   <i type="logical" name="LGWLF"> F  </i>
   <i name="ENCUTGW">     -1.60000002</i>
   <i name="ENCUTGWSOFT">     -1.60000002</i>
   <i name="ENCUTLF">     -1.00000000</i>
   <i type="logical" name="ESF_SPLINES"> F  </i>
   <i name="ESF_CONV">      0.01000000</i>
   <i type="int" name="ESF_NINTER">    15</i>
   <i type="int" name="LMAXMP2">    -1</i>
   <i name="SCISSOR">      0.00000000</i>
   <i type="int" name="NOMEGA">     0</i>
   <i type="int" name="NOMEGAR">     0</i>
   <i type="int" name="NBANDSGW">    -1</i>
   <i type="int" name="NBANDSO">    -1</i>
   <i type="int" name="NBANDSV">    -1</i>
   <i type="int" name="NELMGW">     1</i>
   <i type="int" name="NELMHF">     1</i>
   <i type="int" name="DIM">     3</i>
   <i type="int" name="IESPILON">     4</i>
   <i type="int" name="ANTIRES">     0</i>
   <i name="OMEGAMAX">    -30.00000000</i>
   <i name="OMEGAMIN">    -30.00000000</i>
   <i name="OMEGATL">   -200.00000000</i>
   <i type="int" name="OMEGAGRID">     0</i>
   <i name="CSHIFT">     -0.10000000</i>
   <i type="logical" name="LSELFENERGY"> F  </i>
   <i type="logical" name="LSPECTRAL"> F  </i>
   <i type="logical" name="LSPECTRALGW"> F  </i>
   <i type="logical" name="LSINGLES"> F  </i>
   <i type="logical" name="LFERMIGW"> F  </i>
   <i type="logical" name="ODDONLYGW"> F  </i>
   <i type="logical" name="EVENONLYGW"> F  </i>
   <i type="int" name="NKREDLFX">     1</i>
   <i type="int" name="NKREDLFY">     1</i>
   <i type="int" name="NKREDLFZ">     1</i>
   <i type="int" name="MAXMEM">  2800</i>
   <i type="int" name="TELESCOPE">     0</i>
   <i type="int" name="NTAUPAR">    -1</i>
   <i type="int" name="NOMEGAPAR">    -1</i>
   <i name="DAMP_NEWTON">      0.80000001</i>
   <i name="LAMBDA">      1.00000000</i>
  </separator>
  <separator name="External order field" >
   <i name="OFIELD_KAPPA">      0.00000000</i>
   <v name="OFIELD_K">      0.00000000      0.00000000      0.00000000</v>
   <i name="OFIELD_Q6_NEAR">      0.00000000</i>
   <i name="OFIELD_Q6_FAR">      0.00000000</i>
   <i name="OFIELD_A">      0.00000000</i>
  </separator>
  <separator name="optional k-points parameters" >
   <i type="int" name="KPOINTS_OPT_MODE">     1</i>
   <i type="logical" name="LKPOINTS_OPT"> F  </i>
  </separator>
 </parameters>
 <atominfo>
  <atoms>      37 </atoms>
  <types>       2 </types>
  <array name="atoms" >
   <dimension dim="1">ion</dimension>
   <field type="string">element</field>
   <field type="int">atomtype</field>
   <set>
    <rc><c>Au</c><c>   1</c></rc>
    <rc><c>Au</c><c>   1</c></rc>
    <rc><c>Au</c><c>   1</c></rc>
    <rc><c>Au</c><c>   1</c></rc>
    <rc><c>Au</c><c>   1</c></rc>
    <rc><c>Au</c><c>   1</c></rc>
    <rc><c>Au</c><c>   1</c></rc>
    <rc><c>Au</c><c>   1</c></rc>
    <rc><c>Au</c><c>   1</c></rc>
    <rc><c>Au</c><c>   1</c></rc>
    <rc><c>Au</c><c>   1</c></rc>
    <rc><c>Au</c><c>   1</c></rc>
    <rc><c>Au</c><c>   1</c></rc>
    <rc><c>Au</c><c>   1</c></rc>
    <rc><c>Au</c><c>   1</c></rc>
    <rc><c>Au</c><c>   1</c></rc>
    <rc><c>Au</c><c>   1</c></rc>
    <rc><c>Au</c><c>   1</c></rc>
    <rc><c>Au</c><c>   1</c></rc>
    <rc><c>Au</c><c>   1</c></rc>
    <rc><c>Au</c><c>   1</c></rc>
    <rc><c>Au</c><c>   1</c></rc>
    <rc><c>Au</c><c>   1</c></rc>
    <rc><c>Au</c><c>   1</c></rc>
    <rc><c>Au</c><c>   1</c></rc>
    <rc><c>Au</c><c>   1</c></rc>
    <rc><c>Au</c><c>   1</c></rc>
    <rc><c>Au</c><c>   1</c></rc>
    <rc><c>Au</c><c>   1</c></rc>
    <rc><c>Au</c><c>   1</c></rc>
    <rc><c>Au</c><c>   1</c></rc>
    <rc><c>Au</c><c>   1</c></rc>
    <rc><c>Au</c><c>   1</c></rc>
    <rc><c>Au</c><c>   1</c></rc>
    <rc><c>Au</c><c>   1</c></rc>
    <rc><c>Au</c><c>   1</c></rc>
    <rc><c>O </c><c>   2</c></rc>
   </set>
  </array>
  <array name="atomtypes" >
   <dimension dim="1">type</dimension>
   <field type="int">atomspertype</field>
   <field type="string">element</field>
   <field>mass</field>
   <field>valence</field>
   <field type="string">pseudopotential</field>
   <set>
    <rc><c>  36</c><c>Au</c><c>    196.96600000</c><c>     11.00000000</c><c>  PAW_PBE Au 04Oct2007                  </c></rc>
    <rc><c>   1</c><c>O </c><c>     16.00000000</c><c>      6.00000000</c><c>  PAW_PBE O 08Apr2002                   </c></rc>
   </set>
  </array>
 </atominfo>
 <structure name="initialpos" >
  <crystal>
   <varray name="basis" >
    <v>       8.80347943       0.00000000       0.00000000 </v>
    <v>       4.40173971       7.62403682       0.00000000 </v>
    <v>       0.00000000       0.00000000      23.18801085 </v>
   </varray>
   <i name="volume">   1556.33410245 </i>
   <varray name="rec_basis" >
    <v>       0.11359145      -0.06558205       0.00000000 </v>
    <v>       0.00000000       0.13116411       0.00000000 </v>
    <v>       0.00000000       0.00000000       0.04312573 </v>
   </varray>
  </crystal>
  <varray name="positions" >
   <v>       0.00000000       0.00000000       0.00000000 </v>
   <v>       0.33333333       0.00000000       0.00000000 </v>
   <v>       0.66666667       0.00000000       0.00000000 </v>
   <v>       0.00000000       0.33333333       0.00000000 </v>
   <v>       0.33333333       0.33333333       0.00000000 </v>
   <v>       0.66666667       0.33333333       0.00000000 </v>
   <v>       0.00000000       0.66666667       0.00000000 </v>
   <v>       0.33333333       0.66666667       0.00000000 </v>
   <v>       0.66666667       0.66666667       0.00000000 </v>
   <v>       0.11111111       0.11111111       0.10332942 </v>
   <v>       0.44444444       0.11111111       0.10332942 </v>
   <v>       0.77777778       0.11111111       0.10332942 </v>
   <v>       0.11111111       0.44444444       0.10332942 </v>
   <v>       0.44444444       0.44444444       0.10332942 </v>
   <v>       0.77777778       0.44444444       0.10332942 </v>
   <v>       0.11111111       0.77777778       0.10332942 </v>
   <v>       0.44444444       0.77777778       0.10332942 </v>
   <v>       0.77777778       0.77777778       0.10332942 </v>
   <v>       0.89064650       0.22299021       0.20784995 </v>
   <v>       0.22047338       0.22269691       0.20800869 </v>
   <v>       0.55600325       0.22109049       0.20515214 </v>
   <v>       0.89040413       0.55412417       0.20646211 </v>
   <v>       0.21942275       0.55770917       0.20513845 </v>
   <v>       0.55519065       0.55691663       0.20481299 </v>
   <v>       0.89100054       0.89251006       0.20616657 </v>
   <v>       0.22119881       0.89255653       0.20781768 </v>
   <v>       0.55207020       0.89252565       0.20643141 </v>
   <v>       0.99966342       0.00229782       0.31425052 </v>
   <v>       0.35985965       0.99234835       0.31329211 </v>
   <v>       0.67500419       0.00291012       0.30985712 </v>
   <v>       0.98884967       0.36292359       0.31344223 </v>
   <v>       0.33696496       0.33990231       0.30766115 </v>
   <v>       0.66382041       0.33820606       0.30829183 </v>
   <v>       0.00038784       0.67754244       0.30990825 </v>
   <v>       0.33543207       0.66679147       0.30824933 </v>
   <v>       0.66767596       0.67082633       0.30788124 </v>
   <v>       0.12878318       0.13170750       0.36299485 </v>
  </varray>
  <varray name="selective"  type="logical" >
   <v type="logical" >  F  F  F </v>
   <v type="logical" >  F  F  F </v>
   <v type="logical" >  F  F  F </v>
   <v type="logical" >  F  F  F </v>
   <v type="logical" >  F  F  F </v>
   <v type="logical" >  F  F  F </v>
   <v type="logical" >  F  F  F </v>
   <v type="logical" >  F  F  F </v>
   <v type="logical" >  F  F  F </v>
   <v type="logical" >  F  F  F </v>
   <v type="logical" >  F  F  F </v>
   <v type="logical" >  F  F  F </v>
   <v type="logical" >  F  F  F </v>
   <v type="logical" >  F  F  F </v>
   <v type="logical" >  F  F  F </v>
   <v type="logical" >  F  F  F </v>
   <v type="logical" >  F  F  F </v>
   <v type="logical" >  F  F  F </v>
   <v type="logical" >  T  T  T </v>
   <v type="logical" >  T  T  T </v>
   <v type="logical" >  T  T  T </v>
   <v type="logical" >  T  T  T </v>
   <v type="logical" >  T  T  T </v>
   <v type="logical" >  T  T  T </v>
   <v type="logical" >  T  T  T </v>
   <v type="logical" >  T  T  T </v>
   <v type="logical" >  T  T  T </v>
   <v type="logical" >  T  T  T </v>
   <v type="logical" >  T  T  T </v>
   <v type="logical" >  T  T  T </v>
   <v type="logical" >  T  T  T </v>
   <v type="logical" >  T  T  T </v>
   <v type="logical" >  T  T  T </v>
   <v type="logical" >  T  T  T </v>
   <v type="logical" >  T  T  T </v>
   <v type="logical" >  T  T  T </v>
   <v type="logical" >  T  T  T </v>
  </varray>
  <nose>
   <v>      -3.00000000       0.00000000       0.00010000       0.00010000 </v>
  </nose>
 </structure>
 <calculation>
  <scstep>
   <time name="dav">    3.72    3.75</time>
   <time name="total">    3.79    3.82</time>
   <dipole>
    <v name="dipole">      0.00000000       0.00000000       0.00012107 </v>
    <i name="Tr[quadrupol]">  -4957.15383600 </i>
    <i name="Echarged">      0.00000000 </i>
    <i name="Edipol_quadrupol">      0.00000000 </i>
    <i name="Eion">      0.00000000 </i>
   </dipole>
   <energy>
    <i name="alphaZ">    990.63736317 </i>
    <i name="ewald"> 113073.54044905 </i>
    <i name="hartreedc">-148391.47705595 </i>
    <i name="XCdc">    577.63981493 </i>
    <i name="pawpsdc">  31814.05959759 </i>
    <i name="pawaedc"> -30984.71300122 </i>
    <i name="eentropy">      0.00390042 </i>
    <i name="bandstr">   1624.68955703 </i>
    <i name="atom">  33771.16187166 </i>
    <i name="e_fr_energy">   2475.54249667 </i>
    <i name="e_wo_entrp">   2475.53859625 </i>
    <i name="e_0_energy">   2475.54119653 </i>
   </energy>
  </scstep>
  <scstep>
   <time name="dav">    4.09    4.11</time>
   <time name="total">    4.09    4.11</time>
   <dipole>
    <v name="dipole">      0.00000000       0.00000000       0.00012107 </v>
    <i name="Tr[quadrupol]">  -4957.15383600 </i>
    <i name="Echarged">      0.00000000 </i>
    <i name="Edipol_quadrupol">      0.00000000 </i>
    <i name="Eion">      0.00000000 </i>
   </dipole>
   <energy>
    <i name="e_fr_energy">     34.75380658 </i>
    <i name="e_wo_entrp">     34.74095614 </i>
    <i name="e_0_energy">     34.74952310 </i>
   </energy>
  </scstep>
  <scstep>
   <time name="dav">    4.04    4.07</time>
   <time name="total">    4.04    4.07</time>
   <dipole>
    <v name="dipole">      0.00000000       0.00000000       0.00012107 </v>
    <i name="Tr[quadrupol]">  -4957.15383600 </i>
    <i name="Echarged">      0.00000000 </i>
    <i name="Edipol_quadrupol">      0.00000000 </i>
    <i name="Eion">      0.00000000 </i>
   </dipole>
   <energy>
    <i name="e_fr_energy">   -122.58963999 </i>
    <i name="e_wo_entrp">   -122.57681173 </i>
    <i name="e_0_energy">   -122.58536390 </i>
   </energy>
  </scstep>
  <scstep>
   <time name="dav">    3.95    3.97</time>
   <time name="total">    3.95    3.98</time>
   <dipole>
    <v name="dipole">      0.00000000       0.00000000       0.00012107 </v>
    <i name="Tr[quadrupol]">  -4957.15383600 </i>
    <i name="Echarged">      0.00000000 </i>
    <i name="Edipol_quadrupol">      0.00000000 </i>
    <i name="Eion">      0.00000000 </i>
   </dipole>
   <energy>
    <i name="e_fr_energy">   -126.86267258 </i>
    <i name="e_wo_entrp">   -126.84970797 </i>
    <i name="e_0_energy">   -126.85835104 </i>
   </energy>
  </scstep>
  <scstep>
   <time name="dav">    4.16    4.19</time>
   <time name="total">    4.32    4.35</time>
   <dipole>
    <v name="dipole">      0.00000000       0.00000000       0.00012107 </v>
    <i name="Tr[quadrupol]">  -4957.15383600 </i>
    <i name="Echarged">      0.00000000 </i>
    <i name="Edipol_quadrupol">      0.00000000 </i>
    <i name="Eion">      0.00000000 </i>
   </dipole>
   <energy>
    <i name="e_fr_energy">   -127.01748214 </i>
    <i name="e_wo_entrp">   -127.00450771 </i>
    <i name="e_0_energy">   -127.01315733 </i>
   </energy>
  </scstep>
  <scstep>
   <time name="diag">    0.58    0.59</time>
   <time name="diis">    2.37    2.38</time>
   <time name="orth">    0.09    0.09</time>
   <time name="total">    3.25    3.26</time>
   <dipole>
    <v name="dipole">      0.00000000       0.00000000       0.56823186 </v>
    <i name="Tr[quadrupol]">  -4953.66293842 </i>
    <i name="Echarged">      0.00000000 </i>
    <i name="Edipol_quadrupol">      0.00000000 </i>
    <i name="Eion">      0.00000000 </i>
   </dipole>
   <energy>
    <i name="e_fr_energy">   -120.57778972 </i>
    <i name="e_wo_entrp">   -120.60535660 </i>
    <i name="e_0_energy">   -120.58697868 </i>
   </energy>
  </scstep>
  <scstep>
   <time name="diag">    0.58    0.61</time>
   <time name="diis">    2.53    2.54</time>
   <time name="orth">    0.08    0.09</time>
   <time name="total">    3.40    3.45</time>
   <dipole>
    <v name="dipole">      0.00000000       0.00000000      -1.44673156 </v>
    <i name="Tr[quadrupol]">  -4951.69666058 </i>
    <i name="Echarged">      0.00000000 </i>
    <i name="Edipol_quadrupol">      0.00000000 </i>
    <i name="Eion">      0.00000000 </i>
   </dipole>
   <energy>
    <i name="e_fr_energy">   -134.10638212 </i>
    <i name="e_wo_entrp">   -134.10487077 </i>
    <i name="e_0_energy">   -134.10587834 </i>
   </energy>
  </scstep>
  <scstep>
   <time name="diag">    0.57    0.58</time>
   <time name="diis">    2.57    2.58</time>
   <time name="orth">    0.08    0.09</time>
   <time name="total">    3.44    3.45</time>
   <dipole>
    <v name="dipole">      0.00000000       0.00000000       1.62776392 </v>
    <i name="Tr[quadrupol]">  -4959.47743364 </i>
    <i name="Echarged">      0.00000000 </i>
    <i name="Edipol_quadrupol">      0.00000000 </i>
    <i name="Eion">      0.00000000 </i>
   </dipole>
   <energy>
    <i name="e_fr_energy">   -134.74638734 </i>
    <i name="e_wo_entrp">   -134.73678544 </i>
    <i name="e_0_energy">   -134.74318671 </i>
   </energy>
  </scstep>
  <scstep>
   <time name="diag">    0.57    0.58</time>
   <time name="diis">    2.49    2.50</time>
   <time name="orth">    0.08    0.09</time>
   <time name="total">    3.36    3.37</time>
   <dipole>
    <v name="dipole">      0.00000000       0.00000000      -0.17813926 </v>
    <i name="Tr[quadrupol]">  -4955.30988122 </i>
    <i name="Echarged">      0.00000000 </i>
    <i name="Edipol_quadrupol">      0.00000000 </i>
    <i name="Eion">      0.00000000 </i>
   </dipole>
   <energy>
    <i name="e_fr_energy">   -118.12621159 </i>
    <i name="e_wo_entrp">   -118.10865752 </i>
    <i name="e_0_energy">   -118.12036023 </i>
   </energy>
  </scstep>
  <scstep>
   <time name="diag">    0.58    0.58</time>
   <time name="diis">    2.49    2.50</time>
   <time name="orth">    0.08    0.09</time>
   <time name="total">    3.36    3.38</time>
   <dipole>
    <v name="dipole">      0.00000000       0.00000000       0.01549218 </v>
    <i name="Tr[quadrupol]">  -4952.32874905 </i>
    <i name="Echarged">      0.00000000 </i>
    <i name="Edipol_quadrupol">      0.00000000 </i>
    <i name="Eion">      0.00000000 </i>
   </dipole>
   <energy>
    <i name="e_fr_energy">   -115.34186191 </i>
    <i name="e_wo_entrp">   -115.31505803 </i>
    <i name="e_0_energy">   -115.33292728 </i>
   </energy>
  </scstep>
  <scstep>
   <time name="diag">    0.57    0.58</time>
   <time name="diis">    2.45    2.47</time>
   <time name="orth">    0.08    0.09</time>
   <time name="total">    3.32    3.34</time>
   <dipole>
    <v name="dipole">      0.00000000       0.00000000       0.11911646 </v>
    <i name="Tr[quadrupol]">  -4952.94036792 </i>
    <i name="Echarged">      0.00000000 </i>
    <i name="Edipol_quadrupol">      0.00000000 </i>
    <i name="Eion">      0.00000000 </i>
   </dipole>
   <energy>
    <i name="e_fr_energy">   -115.36051688 </i>
    <i name="e_wo_entrp">   -115.34674628 </i>
    <i name="e_0_energy">   -115.35592668 </i>
   </energy>
  </scstep>
  <scstep>
   <time name="diag">    0.58    0.58</time>
   <time name="diis">    2.42    2.43</time>
   <time name="orth">    0.08    0.09</time>
   <time name="total">    3.29    3.31</time>
   <dipole>
    <v name="dipole">      0.00000000       0.00000000       0.11014872 </v>
    <i name="Tr[quadrupol]">  -4953.82194233 </i>
    <i name="Echarged">      0.00000000 </i>
    <i name="Edipol_quadrupol">      0.00000000 </i>
    <i name="Eion">      0.00000000 </i>
   </dipole>
   <energy>
    <i name="e_fr_energy">   -115.23819022 </i>
    <i name="e_wo_entrp">   -115.22395822 </i>
    <i name="e_0_energy">   -115.23344622 </i>
   </energy>
  </scstep>
  <scstep>
   <time name="diag">    0.58    0.58</time>
   <time name="diis">    2.40    2.41</time>
   <time name="orth">    0.09    0.09</time>
   <time name="total">    3.27    3.29</time>
   <dipole>
    <v name="dipole">      0.00000000       0.00000000       0.10611731 </v>
    <i name="Tr[quadrupol]">  -4953.55106926 </i>
    <i name="Echarged">      0.00000000 </i>
    <i name="Edipol_quadrupol">      0.00000000 </i>
    <i name="Eion">      0.00000000 </i>
   </dipole>
   <energy>
    <i name="e_fr_energy">   -115.17410204 </i>
    <i name="e_wo_entrp">   -115.15133676 </i>
    <i name="e_0_energy">   -115.16651361 </i>
   </energy>
  </scstep>
  <scstep>
   <time name="diag">    0.58    0.58</time>
   <time name="diis">    2.46    2.47</time>
   <time name="orth">    0.09    0.09</time>
   <time name="total">    3.33    3.35</time>
   <dipole>
    <v name="dipole">      0.00000000       0.00000000       0.10942516 </v>
    <i name="Tr[quadrupol]">  -4953.36118935 </i>
    <i name="Echarged">      0.00000000 </i>
    <i name="Edipol_quadrupol">      0.00000000 </i>
    <i name="Eion">      0.00000000 </i>
   </dipole>
   <energy>
    <i name="e_fr_energy">   -115.12805092 </i>
    <i name="e_wo_entrp">   -115.09793059 </i>
    <i name="e_0_energy">   -115.11801081 </i>
   </energy>
  </scstep>
  <scstep>
   <time name="diag">    0.57    0.58</time>
   <time name="diis">    2.53    2.55</time>
   <time name="orth">    0.09    0.09</time>
   <time name="total">    3.41    3.42</time>
   <dipole>
    <v name="dipole">      0.00000000       0.00000000       0.11456660 </v>
    <i name="Tr[quadrupol]">  -4953.34104051 </i>
    <i name="Echarged">      0.00000000 </i>
    <i name="Edipol_quadrupol">      0.00000000 </i>
    <i name="Eion">      0.00000000 </i>
   </dipole>
   <energy>
    <i name="e_fr_energy">   -115.12572733 </i>
    <i name="e_wo_entrp">   -115.09446841 </i>
    <i name="e_0_energy">   -115.11530769 </i>
   </energy>
  </scstep>
  <scstep>
   <time name="diag">    0.57    0.58</time>
   <time name="diis">    2.43    2.44</time>
   <time name="orth">    0.09    0.09</time>
   <time name="total">    3.30    3.32</time>
   <dipole>
    <v name="dipole">      0.00000000       0.00000000       0.10986134 </v>
    <i name="Tr[quadrupol]">  -4953.39892558 </i>
    <i name="Echarged">      0.00000000 </i>
    <i name="Edipol_quadrupol">      0.00000000 </i>
    <i name="Eion">      0.00000000 </i>
   </dipole>
   <energy>
    <i name="e_fr_energy">   -115.12779970 </i>
    <i name="e_wo_entrp">   -115.09692184 </i>
    <i name="e_0_energy">   -115.11750708 </i>
   </energy>
  </scstep>
  <scstep>
   <time name="diag">    0.57    0.58</time>
   <time name="diis">    2.39    2.41</time>
   <time name="orth">    0.09    0.09</time>
   <time name="total">    3.26    3.28</time>
   <dipole>
    <v name="dipole">      0.00000000       0.00000000       0.11283852 </v>
    <i name="Tr[quadrupol]">  -4953.40513335 </i>
    <i name="Echarged">      0.00000000 </i>
    <i name="Edipol_quadrupol">      0.00000000 </i>
    <i name="Eion">      0.00000000 </i>
   </dipole>
   <energy>
    <i name="e_fr_energy">   -115.12811185 </i>
    <i name="e_wo_entrp">   -115.09683276 </i>
    <i name="e_0_energy">   -115.11768548 </i>
   </energy>
  </scstep>
  <scstep>
   <time name="diag">    0.58    0.58</time>
   <time name="diis">    1.67    1.68</time>
   <time name="orth">    0.09    0.09</time>
   <time name="total">    2.55    2.56</time>
   <dipole>
    <v name="dipole">      0.00000000       0.00000000       0.11453084 </v>
    <i name="Tr[quadrupol]">  -4953.41989109 </i>
    <i name="Echarged">      0.00000000 </i>
    <i name="Edipol_quadrupol">      0.00000000 </i>
    <i name="Eion">      0.00000000 </i>
   </dipole>
   <energy>
    <i name="e_fr_energy">   -115.12834125 </i>
    <i name="e_wo_entrp">   -115.09707638 </i>
    <i name="e_0_energy">   -115.11791962 </i>
   </energy>
  </scstep>
  <scstep>
   <time name="diag">    0.58    0.58</time>
   <time name="diis">    1.67    1.67</time>
   <time name="orth">    0.09    0.09</time>
   <time name="total">    2.54    2.55</time>
   <dipole>
    <v name="dipole">      0.00000000       0.00000000       0.11100963 </v>
    <i name="Tr[quadrupol]">  -4953.27011772 </i>
    <i name="Echarged">      0.00000000 </i>
    <i name="Edipol_quadrupol">      0.00000000 </i>
    <i name="Eion">      0.00000000 </i>
   </dipole>
   <energy>
    <i name="e_fr_energy">   -115.12887966 </i>
    <i name="e_wo_entrp">   -115.09767101 </i>
    <i name="e_0_energy">   -115.11847678 </i>
   </energy>
  </scstep>
  <scstep>
   <time name="diag">    0.58    0.58</time>
   <time name="diis">    1.51    1.52</time>
   <time name="orth">    0.09    0.09</time>
   <time name="total">    2.39    2.40</time>
   <dipole>
    <v name="dipole">      0.00000000       0.00000000       0.11409503 </v>
    <i name="Tr[quadrupol]">  -4953.20207542 </i>
    <i name="Echarged">      0.00000000 </i>
    <i name="Edipol_quadrupol">      0.00000000 </i>
    <i name="Eion">      0.00000000 </i>
   </dipole>
   <energy>
    <i name="e_fr_energy">   -115.12901307 </i>
    <i name="e_wo_entrp">   -115.09775005 </i>
    <i name="e_0_energy">   -115.11859206 </i>
   </energy>
  </scstep>
  <scstep>
   <time name="diag">    0.57    0.58</time>
   <time name="diis">    1.37    1.38</time>
   <time name="orth">    0.09    0.09</time>
   <time name="total">    2.25    2.26</time>
   <dipole>
    <v name="dipole">      0.00000000       0.00000000       0.11691606 </v>
    <i name="Tr[quadrupol]">  -4953.17790344 </i>
    <i name="Echarged">      0.00000000 </i>
    <i name="Edipol_quadrupol">      0.00000000 </i>
    <i name="Eion">      0.00000000 </i>
   </dipole>
   <energy>
    <i name="e_fr_energy">   -115.12913661 </i>
    <i name="e_wo_entrp">   -115.09787682 </i>
    <i name="e_0_energy">   -115.11871668 </i>
   </energy>
  </scstep>
  <scstep>
   <time name="diag">    0.57    0.58</time>
   <time name="diis">    0.96    0.97</time>
   <time name="orth">    0.09    0.09</time>
   <time name="total">    1.68    1.69</time>
   <dipole>
    <v name="dipole">      0.00000000       0.00000000       0.11688626 </v>
    <i name="Tr[quadrupol]">  -4953.15651299 </i>
    <i name="Echarged">      0.00000000 </i>
    <i name="Edipol_quadrupol">      0.00000000 </i>
    <i name="Eion">      0.00000000 </i>
   </dipole>
   <energy>
    <i name="alphaZ">    991.18816587 </i>
    <i name="ewald"> 113073.54044905 </i>
    <i name="hartreedc">-147904.47212985 </i>
    <i name="XCdc">    561.19716721 </i>
    <i name="pawpsdc">  36807.47364239 </i>
    <i name="pawaedc"> -36059.87345143 </i>
    <i name="eentropy">     -0.03123702 </i>
    <i name="bandstr">  -1355.31363139 </i>
    <i name="atom">  33771.16187166 </i>
    <i name="e_fr_energy">   -115.12915351 </i>
    <i name="e_wo_entrp">   -115.09791649 </i>
    <i name="e_0_energy">   -115.11874117 </i>
   </energy>
  </scstep>
  <structure>
   <crystal>
    <varray name="basis" >
     <v>       8.80347943       0.00000000       0.00000000 </v>
     <v>       4.40173971       7.62403682       0.00000000 </v>
     <v>       0.00000000       0.00000000      23.18801085 </v>
    </varray>
    <i name="volume">   1556.33410245 </i>
    <varray name="rec_basis" >
     <v>       0.11359145      -0.06558205       0.00000000 </v>
     <v>       0.00000000       0.13116411       0.00000000 </v>
     <v>       0.00000000       0.00000000       0.04312573 </v>
    </varray>
   </crystal>
   <varray name="positions" >
    <v>       0.00000000       0.00000000       0.00000000 </v>
    <v>       0.33333333       0.00000000       0.00000000 </v>
    <v>       0.66666667       0.00000000       0.00000000 </v>
    <v>       0.00000000       0.33333333       0.00000000 </v>
    <v>       0.33333333       0.33333333       0.00000000 </v>
    <v>       0.66666667       0.33333333       0.00000000 </v>
    <v>       0.00000000       0.66666667       0.00000000 </v>
    <v>       0.33333333       0.66666667       0.00000000 </v>
    <v>       0.66666667       0.66666667       0.00000000 </v>
    <v>       0.11111111       0.11111111       0.10332942 </v>
    <v>       0.44444444       0.11111111       0.10332942 </v>
    <v>       0.77777778       0.11111111       0.10332942 </v>
    <v>       0.11111111       0.44444444       0.10332942 </v>
    <v>       0.44444444       0.44444444       0.10332942 </v>
    <v>       0.77777778       0.44444444       0.10332942 </v>
    <v>       0.11111111       0.77777778       0.10332942 </v>
    <v>       0.44444444       0.77777778       0.10332942 </v>
    <v>       0.77777778       0.77777778       0.10332942 </v>
    <v>       0.89064650       0.22299021       0.20784995 </v>
    <v>       0.22047338       0.22269691       0.20800869 </v>
    <v>       0.55600325       0.22109049       0.20515214 </v>
    <v>       0.89040413       0.55412417       0.20646211 </v>
    <v>       0.21942275       0.55770917       0.20513845 </v>
    <v>       0.55519065       0.55691663       0.20481299 </v>
    <v>       0.89100054       0.89251006       0.20616657 </v>
    <v>       0.22119881       0.89255653       0.20781768 </v>
    <v>       0.55207020       0.89252565       0.20643141 </v>
    <v>       0.99966342       0.00229782       0.31425052 </v>
    <v>       0.35985965       0.99234835       0.31329211 </v>
    <v>       0.67500419       0.00291012       0.30985712 </v>
    <v>       0.98884967       0.36292359       0.31344223 </v>
    <v>       0.33696496       0.33990231       0.30766115 </v>
    <v>       0.66382041       0.33820606       0.30829183 </v>
    <v>       0.00038784       0.67754244       0.30990825 </v>
    <v>       0.33543207       0.66679147       0.30824933 </v>
    <v>       0.66767596       0.67082633       0.30788124 </v>
    <v>       0.12878318       0.13170750       0.36299485 </v>
   </varray>
  </structure>
  <varray name="forces" >
   <v>       0.01549540       0.00803182      -0.04818095 </v>
   <v>      -0.02015095       0.01192290      -0.05823108 </v>
   <v>       0.00519158      -0.02050746      -0.07544827 </v>
   <v>       0.00098774      -0.02506516      -0.05796275 </v>
   <v>      -0.00112177      -0.00133150      -0.06468321 </v>
   <v>       0.00627415      -0.00340353      -0.05904986 </v>
   <v>      -0.01415737       0.01414636      -0.07453742 </v>
   <v>       0.00054190       0.00648349      -0.05888707 </v>
   <v>       0.01510549       0.00858226      -0.06855404 </v>
   <v>       0.00982855       0.01066289       0.12709303 </v>
   <v>       0.00071786       0.01916649       0.04891513 </v>
   <v>      -0.00498062       0.03256394       0.04680597 </v>
   <v>       0.01237066      -0.00380591       0.05172337 </v>
   <v>      -0.01009896      -0.00173066      -0.00682212 </v>
   <v>      -0.01010028      -0.00997212       0.04515949 </v>
   <v>       0.02319628      -0.01365700       0.04421676 </v>
   <v>      -0.01579761       0.00311282       0.04152947 </v>
   <v>      -0.01067236      -0.00156213       0.22431468 </v>
   <v>       0.01251758      -0.00399760       0.01341699 </v>
   <v>       0.01598942       0.00600716       0.00861090 </v>
   <v>       0.01906522       0.00103408      -0.01194260 </v>
   <v>       0.00787964       0.01798485      -0.00207088 </v>
   <v>       0.01008349       0.01496696      -0.01186191 </v>
   <v>       0.03290767       0.01850829       0.00624064 </v>
   <v>       0.03592650       0.02227904       0.03584685 </v>
   <v>       0.00392180       0.01004918       0.01234468 </v>
   <v>       0.02078592      -0.00615603      -0.00202579 </v>
   <v>      -0.02074790      -0.01158313       0.10912887 </v>
   <v>       0.06321709       0.01661976      -0.02585480 </v>
   <v>       0.03761721       0.00716538      -0.00551870 </v>
   <v>       0.05191493       0.04395412      -0.03375193 </v>
   <v>       0.01980371       0.00869378      -0.02545849 </v>
   <v>       0.02291191       0.01970147      -0.01546827 </v>
   <v>       0.02202926       0.02646611      -0.00711547 </v>
   <v>       0.02936266       0.00439951      -0.01340533 </v>
   <v>       0.04710060       0.02241721       0.03800823 </v>
   <v>      -0.43491640      -0.25214760      -0.12652413 </v>
  </varray>
  <varray name="stress" >
   <v>     -16.32090074      -0.85024250      -0.93800570 </v>
   <v>      -0.85024254     -15.28381522      -0.66661706 </v>
   <v>      -0.93800568      -0.66661707      -0.53808986 </v>
  </varray>
  <energy>
   <i name="e_fr_energy">   -115.12915351 </i>
   <i name="e_wo_entrp">   -115.09791649 </i>
   <i name="e_0_energy">   -115.11874117 </i>
  </energy>
  <time name="totalsc">   74.66   75.08</time>
  <eigenvalues>
   <array>
    <dimension dim="1">band</dimension>
    <dimension dim="2">kpoint</dimension>
    <dimension dim="3">spin</dimension>
    <field>eigene</field>
    <field>occ</field>
    <set>
     <set comment="spin 1">
      <set comment="kpoint 1">
       <r>  -17.1729    1.0000 </r>
       <r>   -8.2148    1.0000 </r>
       <r>   -7.0818    1.0000 </r>
       <r>   -6.8699    1.0000 </r>
       <r>   -6.4011    1.0000 </r>
       <r>   -6.3621    1.0000 </r>
       <r>   -6.1320    1.0000 </r>
       <r>   -6.0888    1.0000 </r>
       <r>   -6.0832    1.0000 </r>
       <r>   -6.0059    1.0000 </r>
       <r>   -5.9917    1.0000 </r>
       <r>   -5.9627    1.0000 </r>
       <r>   -5.8480    1.0000 </r>
       <r>   -5.7889    1.0000 </r>
       <r>   -5.6951    1.0000 </r>
       <r>   -5.6842    1.0000 </r>
       <r>   -5.6560    1.0000 </r>
       <r>   -5.5283    1.0000 </r>
       <r>   -5.4904    1.0000 </r>
       <r>   -5.4772    1.0000 </r>
       <r>   -5.3846    1.0000 </r>
       <r>   -5.3616    1.0000 </r>
       <r>   -5.3559    1.0000 </r>
       <r>   -5.2848    1.0000 </r>
       <r>   -5.2799    1.0000 </r>
       <r>   -5.2617    1.0000 </r>
       <r>   -5.2580    1.0000 </r>
       <r>   -5.2499    1.0000 </r>
       <r>   -5.2322    1.0000 </r>
       <r>   -5.1957    1.0000 </r>
       <r>   -5.1952    1.0000 </r>
       <r>   -5.1185    1.0000 </r>
       <r>   -5.0781    1.0000 </r>
       <r>   -5.0436    1.0000 </r>
       <r>   -5.0206    1.0000 </r>
       <r>   -4.9839    1.0000 </r>
       <r>   -4.9128    1.0000 </r>
       <r>   -4.8847    1.0000 </r>
       <r>   -4.8784    1.0000 </r>
       <r>   -4.8397    1.0000 </r>
       <r>   -4.7943    1.0000 </r>
       <r>   -4.7376    1.0000 </r>
       <r>   -4.7106    1.0000 </r>
       <r>   -4.6770    1.0000 </r>
       <r>   -4.6381    1.0000 </r>
       <r>   -4.6088    1.0000 </r>
       <r>   -4.6027    1.0000 </r>
       <r>   -4.5597    1.0000 </r>
       <r>   -4.5073    1.0000 </r>
       <r>   -4.4145    1.0000 </r>
       <r>   -4.4020    1.0000 </r>
       <r>   -4.3774    1.0000 </r>
       <r>   -4.3640    1.0000 </r>
       <r>   -4.3318    1.0000 </r>
       <r>   -4.3305    1.0000 </r>
       <r>   -4.2531    1.0000 </r>
       <r>   -4.2285    1.0000 </r>
       <r>   -4.1984    1.0000 </r>
       <r>   -4.1631    1.0000 </r>
       <r>   -4.1386    1.0000 </r>
       <r>   -4.0933    1.0000 </r>
       <r>   -4.0654    1.0000 </r>
       <r>   -4.0617    1.0000 </r>
       <r>   -4.0171    1.0000 </r>
       <r>   -3.9950    1.0000 </r>
       <r>   -3.9772    1.0000 </r>
       <r>   -3.9554    1.0000 </r>
       <r>   -3.9384    1.0000 </r>
       <r>   -3.9140    1.0000 </r>
       <r>   -3.9103    1.0000 </r>
       <r>   -3.8634    1.0000 </r>
       <r>   -3.8275    1.0000 </r>
       <r>   -3.8069    1.0000 </r>
       <r>   -3.7825    1.0000 </r>
       <r>   -3.7459    1.0000 </r>
       <r>   -3.7319    1.0000 </r>
       <r>   -3.7225    1.0000 </r>
       <r>   -3.6987    1.0000 </r>
       <r>   -3.6871    1.0000 </r>
       <r>   -3.6479    1.0000 </r>
       <r>   -3.6433    1.0000 </r>
       <r>   -3.6289    1.0000 </r>
       <r>   -3.6276    1.0000 </r>
       <r>   -3.6129    1.0000 </r>
       <r>   -3.6064    1.0000 </r>
       <r>   -3.5604    1.0000 </r>
       <r>   -3.5556    1.0000 </r>
       <r>   -3.5286    1.0000 </r>
       <r>   -3.5152    1.0000 </r>
       <r>   -3.5075    1.0000 </r>
       <r>   -3.4851    1.0000 </r>
       <r>   -3.4781    1.0000 </r>
       <r>   -3.4498    1.0000 </r>
       <r>   -3.4336    1.0000 </r>
       <r>   -3.3951    1.0000 </r>
       <r>   -3.3861    1.0000 </r>
       <r>   -3.3598    1.0000 </r>
       <r>   -3.3482    1.0000 </r>
       <r>   -3.3262    1.0000 </r>
       <r>   -3.2824    1.0000 </r>
       <r>   -3.2635    1.0000 </r>
       <r>   -3.2417    1.0000 </r>
       <r>   -3.2097    1.0000 </r>
       <r>   -3.1969    1.0000 </r>
       <r>   -3.1884    1.0000 </r>
       <r>   -3.1521    1.0000 </r>
       <r>   -3.1426    1.0000 </r>
       <r>   -3.1135    1.0000 </r>
       <r>   -3.0955    1.0000 </r>
       <r>   -3.0633    1.0000 </r>
       <r>   -3.0222    1.0000 </r>
       <r>   -3.0139    1.0000 </r>
       <r>   -2.9673    1.0000 </r>
       <r>   -2.9527    1.0000 </r>
       <r>   -2.9271    1.0000 </r>
       <r>   -2.8606    1.0000 </r>
       <r>   -2.8529    1.0000 </r>
       <r>   -2.8265    1.0000 </r>
       <r>   -2.8114    1.0000 </r>
       <r>   -2.7981    1.0000 </r>
       <r>   -2.7903    1.0000 </r>
       <r>   -2.7675    1.0000 </r>
       <r>   -2.7466    1.0000 </r>
       <r>   -2.6915    1.0000 </r>
       <r>   -2.6725    1.0000 </r>
       <r>   -2.6461    1.0000 </r>
       <r>   -2.6360    1.0000 </r>
       <r>   -2.5980    1.0000 </r>
       <r>   -2.5943    1.0000 </r>
       <r>   -2.5668    1.0000 </r>
       <r>   -2.5473    1.0000 </r>
       <r>   -2.4730    1.0000 </r>
       <r>   -2.4688    1.0000 </r>
       <r>   -2.4309    1.0000 </r>
       <r>   -2.4078    1.0000 </r>
       <r>   -2.3933    1.0000 </r>
       <r>   -2.3774    1.0000 </r>
       <r>   -2.3368    1.0000 </r>
       <r>   -2.3205    1.0000 </r>
       <r>   -2.3017    1.0000 </r>
       <r>   -2.2771    1.0000 </r>
       <r>   -2.2358    1.0000 </r>
       <r>   -2.2347    1.0000 </r>
       <r>   -2.1987    1.0000 </r>
       <r>   -2.1945    1.0000 </r>
       <r>   -2.1416    1.0000 </r>
       <r>   -2.1405    1.0000 </r>
       <r>   -2.1146    1.0000 </r>
       <r>   -2.0797    1.0000 </r>
       <r>   -2.0568    1.0000 </r>
       <r>   -2.0547    1.0000 </r>
       <r>   -2.0301    1.0000 </r>
       <r>   -2.0153    1.0000 </r>
       <r>   -2.0088    1.0000 </r>
       <r>   -1.9746    1.0000 </r>
       <r>   -1.9731    1.0000 </r>
       <r>   -1.9548    1.0000 </r>
       <r>   -1.9468    1.0000 </r>
       <r>   -1.8919    1.0000 </r>
       <r>   -1.8844    1.0000 </r>
       <r>   -1.8070    1.0000 </r>
       <r>   -1.8009    1.0000 </r>
       <r>   -1.7955    1.0000 </r>
       <r>   -1.7712    1.0000 </r>
       <r>   -1.7332    1.0000 </r>
       <r>   -1.6829    1.0000 </r>
       <r>   -1.6744    1.0000 </r>
       <r>   -1.6578    1.0000 </r>
       <r>   -1.6558    1.0000 </r>
       <r>   -1.6501    1.0000 </r>
       <r>   -1.6349    1.0000 </r>
       <r>   -1.6299    1.0000 </r>
       <r>   -1.6193    1.0000 </r>
       <r>   -1.5779    1.0000 </r>
       <r>   -1.5772    1.0000 </r>
       <r>   -1.5618    1.0000 </r>
       <r>   -1.5511    1.0000 </r>
       <r>   -1.5480    1.0000 </r>
       <r>   -1.5276    1.0000 </r>
       <r>   -1.5223    1.0000 </r>
       <r>   -1.5090    1.0000 </r>
       <r>   -1.4930    1.0000 </r>
       <r>   -1.4321    1.0000 </r>
       <r>   -1.3992    1.0000 </r>
       <r>   -1.3841    1.0000 </r>
       <r>   -1.3740    1.0000 </r>
       <r>   -1.3519    1.0000 </r>
       <r>   -1.3342    1.0000 </r>
       <r>   -1.2492    1.0000 </r>
       <r>   -1.2128    1.0000 </r>
       <r>   -1.1162    1.0000 </r>
       <r>   -0.9442    1.0000 </r>
       <r>   -0.9182    1.0000 </r>
       <r>   -0.8633    1.0000 </r>
       <r>   -0.7276    1.0000 </r>
       <r>   -0.7109    1.0000 </r>
       <r>   -0.5657    1.0000 </r>
       <r>   -0.4927    1.0000 </r>
       <r>   -0.3929    1.0000 </r>
       <r>   -0.2284    1.0000 </r>
       <r>   -0.0145    1.0000 </r>
       <r>    0.1034    1.0000 </r>
       <r>    0.4496    0.4930 </r>
       <r>    0.8149   -0.0000 </r>
       <r>    0.9415   -0.0000 </r>
       <r>    1.2679   -0.0000 </r>
       <r>    1.3745   -0.0000 </r>
       <r>    1.6448   -0.0000 </r>
       <r>    1.7864   -0.0000 </r>
       <r>    1.8472   -0.0000 </r>
       <r>    1.9086   -0.0000 </r>
       <r>    2.1730   -0.0000 </r>
       <r>    2.7166    0.0000 </r>
       <r>    2.9158    0.0000 </r>
       <r>    2.9176    0.0000 </r>
       <r>    3.0541    0.0000 </r>
       <r>    3.5247    0.0000 </r>
       <r>    3.5770    0.0000 </r>
       <r>    3.5895    0.0000 </r>
       <r>    3.9204    0.0000 </r>
       <r>    4.0384    0.0000 </r>
       <r>    4.0595    0.0000 </r>
       <r>    4.3286    0.0000 </r>
       <r>    4.5149    0.0000 </r>
       <r>    4.6046    0.0000 </r>
       <r>    4.8631    0.0000 </r>
       <r>    4.8985    0.0000 </r>
       <r>    5.0596    0.0000 </r>
       <r>    5.1904    0.0000 </r>
       <r>    5.2121    0.0000 </r>
       <r>    5.3054    0.0000 </r>
       <r>    5.5575    0.0000 </r>
       <r>    5.5947    0.0000 </r>
       <r>    5.7047    0.0000 </r>
       <r>    5.8570    0.0000 </r>
       <r>    5.9659    0.0000 </r>
       <r>    6.0837    0.0000 </r>
       <r>    6.1565    0.0000 </r>
       <r>    6.2008    0.0000 </r>
       <r>    6.5915    0.0000 </r>
       <r>    6.7309    0.0000 </r>
       <r>    6.7817    0.0000 </r>
      </set>
      <set comment="kpoint 2">
       <r>  -17.1728    1.0000 </r>
       <r>   -8.2150    1.0000 </r>
       <r>   -7.0850    1.0000 </r>
       <r>   -6.8685    1.0000 </r>
       <r>   -6.3966    1.0000 </r>
       <r>   -6.3717    1.0000 </r>
       <r>   -6.1447    1.0000 </r>
       <r>   -6.0926    1.0000 </r>
       <r>   -6.0703    1.0000 </r>
       <r>   -6.0062    1.0000 </r>
       <r>   -5.9931    1.0000 </r>
       <r>   -5.9612    1.0000 </r>
       <r>   -5.8496    1.0000 </r>
       <r>   -5.7634    1.0000 </r>
       <r>   -5.7019    1.0000 </r>
       <r>   -5.6797    1.0000 </r>
       <r>   -5.6490    1.0000 </r>
       <r>   -5.5430    1.0000 </r>
       <r>   -5.4934    1.0000 </r>
       <r>   -5.4385    1.0000 </r>
       <r>   -5.3924    1.0000 </r>
       <r>   -5.3616    1.0000 </r>
       <r>   -5.3515    1.0000 </r>
       <r>   -5.2976    1.0000 </r>
       <r>   -5.2738    1.0000 </r>
       <r>   -5.2628    1.0000 </r>
       <r>   -5.2576    1.0000 </r>
       <r>   -5.2406    1.0000 </r>
       <r>   -5.2310    1.0000 </r>
       <r>   -5.2054    1.0000 </r>
       <r>   -5.1973    1.0000 </r>
       <r>   -5.1115    1.0000 </r>
       <r>   -5.0772    1.0000 </r>
       <r>   -5.0387    1.0000 </r>
       <r>   -5.0141    1.0000 </r>
       <r>   -4.9853    1.0000 </r>
       <r>   -4.9170    1.0000 </r>
       <r>   -4.8955    1.0000 </r>
       <r>   -4.8741    1.0000 </r>
       <r>   -4.8516    1.0000 </r>
       <r>   -4.8094    1.0000 </r>
       <r>   -4.7198    1.0000 </r>
       <r>   -4.7092    1.0000 </r>
       <r>   -4.7004    1.0000 </r>
       <r>   -4.6311    1.0000 </r>
       <r>   -4.6112    1.0000 </r>
       <r>   -4.5923    1.0000 </r>
       <r>   -4.5700    1.0000 </r>
       <r>   -4.5189    1.0000 </r>
       <r>   -4.4520    1.0000 </r>
       <r>   -4.4060    1.0000 </r>
       <r>   -4.3911    1.0000 </r>
       <r>   -4.3621    1.0000 </r>
       <r>   -4.3338    1.0000 </r>
       <r>   -4.3178    1.0000 </r>
       <r>   -4.2669    1.0000 </r>
       <r>   -4.2309    1.0000 </r>
       <r>   -4.1958    1.0000 </r>
       <r>   -4.1630    1.0000 </r>
       <r>   -4.1484    1.0000 </r>
       <r>   -4.1010    1.0000 </r>
       <r>   -4.0803    1.0000 </r>
       <r>   -4.0567    1.0000 </r>
       <r>   -4.0251    1.0000 </r>
       <r>   -3.9916    1.0000 </r>
       <r>   -3.9674    1.0000 </r>
       <r>   -3.9577    1.0000 </r>
       <r>   -3.9335    1.0000 </r>
       <r>   -3.9250    1.0000 </r>
       <r>   -3.8955    1.0000 </r>
       <r>   -3.8555    1.0000 </r>
       <r>   -3.8085    1.0000 </r>
       <r>   -3.7841    1.0000 </r>
       <r>   -3.7728    1.0000 </r>
       <r>   -3.7532    1.0000 </r>
       <r>   -3.7470    1.0000 </r>
       <r>   -3.7356    1.0000 </r>
       <r>   -3.7032    1.0000 </r>
       <r>   -3.6953    1.0000 </r>
       <r>   -3.6660    1.0000 </r>
       <r>   -3.6554    1.0000 </r>
       <r>   -3.6389    1.0000 </r>
       <r>   -3.6296    1.0000 </r>
       <r>   -3.6235    1.0000 </r>
       <r>   -3.6185    1.0000 </r>
       <r>   -3.5714    1.0000 </r>
       <r>   -3.5587    1.0000 </r>
       <r>   -3.5318    1.0000 </r>
       <r>   -3.5061    1.0000 </r>
       <r>   -3.4971    1.0000 </r>
       <r>   -3.4815    1.0000 </r>
       <r>   -3.4648    1.0000 </r>
       <r>   -3.4452    1.0000 </r>
       <r>   -3.4292    1.0000 </r>
       <r>   -3.4067    1.0000 </r>
       <r>   -3.4000    1.0000 </r>
       <r>   -3.3712    1.0000 </r>
       <r>   -3.3376    1.0000 </r>
       <r>   -3.3174    1.0000 </r>
       <r>   -3.2827    1.0000 </r>
       <r>   -3.2605    1.0000 </r>
       <r>   -3.2238    1.0000 </r>
       <r>   -3.2035    1.0000 </r>
       <r>   -3.1906    1.0000 </r>
       <r>   -3.1573    1.0000 </r>
       <r>   -3.1361    1.0000 </r>
       <r>   -3.1246    1.0000 </r>
       <r>   -3.1175    1.0000 </r>
       <r>   -3.0875    1.0000 </r>
       <r>   -3.0629    1.0000 </r>
       <r>   -3.0251    1.0000 </r>
       <r>   -2.9766    1.0000 </r>
       <r>   -2.9592    1.0000 </r>
       <r>   -2.9422    1.0000 </r>
       <r>   -2.9279    1.0000 </r>
       <r>   -2.8972    1.0000 </r>
       <r>   -2.8484    1.0000 </r>
       <r>   -2.8178    1.0000 </r>
       <r>   -2.8099    1.0000 </r>
       <r>   -2.8076    1.0000 </r>
       <r>   -2.7878    1.0000 </r>
       <r>   -2.7735    1.0000 </r>
       <r>   -2.7649    1.0000 </r>
       <r>   -2.6930    1.0000 </r>
       <r>   -2.6631    1.0000 </r>
       <r>   -2.6344    1.0000 </r>
       <r>   -2.6239    1.0000 </r>
       <r>   -2.6095    1.0000 </r>
       <r>   -2.5930    1.0000 </r>
       <r>   -2.5715    1.0000 </r>
       <r>   -2.5264    1.0000 </r>
       <r>   -2.4855    1.0000 </r>
       <r>   -2.4565    1.0000 </r>
       <r>   -2.4198    1.0000 </r>
       <r>   -2.4071    1.0000 </r>
       <r>   -2.3879    1.0000 </r>
       <r>   -2.3782    1.0000 </r>
       <r>   -2.3413    1.0000 </r>
       <r>   -2.3185    1.0000 </r>
       <r>   -2.2904    1.0000 </r>
       <r>   -2.2614    1.0000 </r>
       <r>   -2.2455    1.0000 </r>
       <r>   -2.2215    1.0000 </r>
       <r>   -2.1940    1.0000 </r>
       <r>   -2.1752    1.0000 </r>
       <r>   -2.1435    1.0000 </r>
       <r>   -2.1285    1.0000 </r>
       <r>   -2.1135    1.0000 </r>
       <r>   -2.0762    1.0000 </r>
       <r>   -2.0579    1.0000 </r>
       <r>   -2.0475    1.0000 </r>
       <r>   -2.0307    1.0000 </r>
       <r>   -2.0064    1.0000 </r>
       <r>   -1.9976    1.0000 </r>
       <r>   -1.9759    1.0000 </r>
       <r>   -1.9699    1.0000 </r>
       <r>   -1.9578    1.0000 </r>
       <r>   -1.9488    1.0000 </r>
       <r>   -1.8910    1.0000 </r>
       <r>   -1.8777    1.0000 </r>
       <r>   -1.8257    1.0000 </r>
       <r>   -1.8168    1.0000 </r>
       <r>   -1.7985    1.0000 </r>
       <r>   -1.7642    1.0000 </r>
       <r>   -1.7314    1.0000 </r>
       <r>   -1.6860    1.0000 </r>
       <r>   -1.6735    1.0000 </r>
       <r>   -1.6699    1.0000 </r>
       <r>   -1.6502    1.0000 </r>
       <r>   -1.6439    1.0000 </r>
       <r>   -1.6314    1.0000 </r>
       <r>   -1.6270    1.0000 </r>
       <r>   -1.6140    1.0000 </r>
       <r>   -1.5797    1.0000 </r>
       <r>   -1.5725    1.0000 </r>
       <r>   -1.5480    1.0000 </r>
       <r>   -1.5452    1.0000 </r>
       <r>   -1.5365    1.0000 </r>
       <r>   -1.5312    1.0000 </r>
       <r>   -1.5162    1.0000 </r>
       <r>   -1.4919    1.0000 </r>
       <r>   -1.4785    1.0000 </r>
       <r>   -1.4478    1.0000 </r>
       <r>   -1.4073    1.0000 </r>
       <r>   -1.3987    1.0000 </r>
       <r>   -1.3859    1.0000 </r>
       <r>   -1.3715    1.0000 </r>
       <r>   -1.3502    1.0000 </r>
       <r>   -1.2621    1.0000 </r>
       <r>   -1.2155    1.0000 </r>
       <r>   -1.0864    1.0000 </r>
       <r>   -0.9677    1.0000 </r>
       <r>   -0.9208    1.0000 </r>
       <r>   -0.8711    1.0000 </r>
       <r>   -0.7629    1.0000 </r>
       <r>   -0.7340    1.0000 </r>
       <r>   -0.5349    1.0000 </r>
       <r>   -0.4757    1.0000 </r>
       <r>   -0.4180    1.0000 </r>
       <r>   -0.2505    1.0000 </r>
       <r>   -0.0417    1.0000 </r>
       <r>    0.0727    1.0000 </r>
       <r>    0.4452    0.5306 </r>
       <r>    0.8428   -0.0000 </r>
       <r>    0.9260   -0.0000 </r>
       <r>    1.2919   -0.0000 </r>
       <r>    1.3705   -0.0000 </r>
       <r>    1.6353   -0.0000 </r>
       <r>    1.7732   -0.0000 </r>
       <r>    1.8487   -0.0000 </r>
       <r>    1.8951   -0.0000 </r>
       <r>    2.1922   -0.0000 </r>
       <r>    2.7288    0.0000 </r>
       <r>    2.8968    0.0000 </r>
       <r>    2.9288    0.0000 </r>
       <r>    3.0511    0.0000 </r>
       <r>    3.4655    0.0000 </r>
       <r>    3.5497    0.0000 </r>
       <r>    3.6649    0.0000 </r>
       <r>    3.9392    0.0000 </r>
       <r>    4.0643    0.0000 </r>
       <r>    4.0730    0.0000 </r>
       <r>    4.3219    0.0000 </r>
       <r>    4.4895    0.0000 </r>
       <r>    4.5805    0.0000 </r>
       <r>    4.8439    0.0000 </r>
       <r>    4.8706    0.0000 </r>
       <r>    5.1026    0.0000 </r>
       <r>    5.1894    0.0000 </r>
       <r>    5.2143    0.0000 </r>
       <r>    5.2937    0.0000 </r>
       <r>    5.5492    0.0000 </r>
       <r>    5.6464    0.0000 </r>
       <r>    5.7106    0.0000 </r>
       <r>    5.8666    0.0000 </r>
       <r>    5.9640    0.0000 </r>
       <r>    6.0492    0.0000 </r>
       <r>    6.1625    0.0000 </r>
       <r>    6.3913    0.0000 </r>
       <r>    6.7186    0.0000 </r>
       <r>    6.7850    0.0000 </r>
       <r>    6.8737    0.0000 </r>
      </set>
      <set comment="kpoint 3">
       <r>  -17.1728    1.0000 </r>
       <r>   -8.2151    1.0000 </r>
       <r>   -7.0852    1.0000 </r>
       <r>   -6.8703    1.0000 </r>
       <r>   -6.3943    1.0000 </r>
       <r>   -6.3710    1.0000 </r>
       <r>   -6.1445    1.0000 </r>
       <r>   -6.0927    1.0000 </r>
       <r>   -6.0747    1.0000 </r>
       <r>   -6.0054    1.0000 </r>
       <r>   -5.9901    1.0000 </r>
       <r>   -5.9597    1.0000 </r>
       <r>   -5.8480    1.0000 </r>
       <r>   -5.7648    1.0000 </r>
       <r>   -5.7041    1.0000 </r>
       <r>   -5.6812    1.0000 </r>
       <r>   -5.6503    1.0000 </r>
       <r>   -5.5425    1.0000 </r>
       <r>   -5.4930    1.0000 </r>
       <r>   -5.4380    1.0000 </r>
       <r>   -5.3930    1.0000 </r>
       <r>   -5.3626    1.0000 </r>
       <r>   -5.3509    1.0000 </r>
       <r>   -5.2979    1.0000 </r>
       <r>   -5.2748    1.0000 </r>
       <r>   -5.2628    1.0000 </r>
       <r>   -5.2564    1.0000 </r>
       <r>   -5.2406    1.0000 </r>
       <r>   -5.2305    1.0000 </r>
       <r>   -5.2039    1.0000 </r>
       <r>   -5.1962    1.0000 </r>
       <r>   -5.1141    1.0000 </r>
       <r>   -5.0771    1.0000 </r>
       <r>   -5.0386    1.0000 </r>
       <r>   -5.0142    1.0000 </r>
       <r>   -4.9858    1.0000 </r>
       <r>   -4.9175    1.0000 </r>
       <r>   -4.8948    1.0000 </r>
       <r>   -4.8739    1.0000 </r>
       <r>   -4.8516    1.0000 </r>
       <r>   -4.8063    1.0000 </r>
       <r>   -4.7181    1.0000 </r>
       <r>   -4.7079    1.0000 </r>
       <r>   -4.6999    1.0000 </r>
       <r>   -4.6314    1.0000 </r>
       <r>   -4.6130    1.0000 </r>
       <r>   -4.5927    1.0000 </r>
       <r>   -4.5706    1.0000 </r>
       <r>   -4.5184    1.0000 </r>
       <r>   -4.4513    1.0000 </r>
       <r>   -4.4053    1.0000 </r>
       <r>   -4.3900    1.0000 </r>
       <r>   -4.3598    1.0000 </r>
       <r>   -4.3364    1.0000 </r>
       <r>   -4.3183    1.0000 </r>
       <r>   -4.2662    1.0000 </r>
       <r>   -4.2298    1.0000 </r>
       <r>   -4.1953    1.0000 </r>
       <r>   -4.1623    1.0000 </r>
       <r>   -4.1487    1.0000 </r>
       <r>   -4.0971    1.0000 </r>
       <r>   -4.0759    1.0000 </r>
       <r>   -4.0539    1.0000 </r>
       <r>   -4.0224    1.0000 </r>
       <r>   -3.9931    1.0000 </r>
       <r>   -3.9707    1.0000 </r>
       <r>   -3.9607    1.0000 </r>
       <r>   -3.9338    1.0000 </r>
       <r>   -3.9252    1.0000 </r>
       <r>   -3.8952    1.0000 </r>
       <r>   -3.8580    1.0000 </r>
       <r>   -3.8087    1.0000 </r>
       <r>   -3.7925    1.0000 </r>
       <r>   -3.7801    1.0000 </r>
       <r>   -3.7536    1.0000 </r>
       <r>   -3.7475    1.0000 </r>
       <r>   -3.7348    1.0000 </r>
       <r>   -3.7032    1.0000 </r>
       <r>   -3.6951    1.0000 </r>
       <r>   -3.6634    1.0000 </r>
       <r>   -3.6521    1.0000 </r>
       <r>   -3.6360    1.0000 </r>
       <r>   -3.6270    1.0000 </r>
       <r>   -3.6210    1.0000 </r>
       <r>   -3.6145    1.0000 </r>
       <r>   -3.5730    1.0000 </r>
       <r>   -3.5599    1.0000 </r>
       <r>   -3.5306    1.0000 </r>
       <r>   -3.5068    1.0000 </r>
       <r>   -3.4999    1.0000 </r>
       <r>   -3.4810    1.0000 </r>
       <r>   -3.4664    1.0000 </r>
       <r>   -3.4464    1.0000 </r>
       <r>   -3.4298    1.0000 </r>
       <r>   -3.4069    1.0000 </r>
       <r>   -3.4013    1.0000 </r>
       <r>   -3.3711    1.0000 </r>
       <r>   -3.3378    1.0000 </r>
       <r>   -3.3180    1.0000 </r>
       <r>   -3.2824    1.0000 </r>
       <r>   -3.2623    1.0000 </r>
       <r>   -3.2233    1.0000 </r>
       <r>   -3.2020    1.0000 </r>
       <r>   -3.1910    1.0000 </r>
       <r>   -3.1593    1.0000 </r>
       <r>   -3.1370    1.0000 </r>
       <r>   -3.1245    1.0000 </r>
       <r>   -3.1175    1.0000 </r>
       <r>   -3.0867    1.0000 </r>
       <r>   -3.0634    1.0000 </r>
       <r>   -3.0247    1.0000 </r>
       <r>   -2.9755    1.0000 </r>
       <r>   -2.9588    1.0000 </r>
       <r>   -2.9406    1.0000 </r>
       <r>   -2.9272    1.0000 </r>
       <r>   -2.8969    1.0000 </r>
       <r>   -2.8501    1.0000 </r>
       <r>   -2.8199    1.0000 </r>
       <r>   -2.8120    1.0000 </r>
       <r>   -2.8082    1.0000 </r>
       <r>   -2.7872    1.0000 </r>
       <r>   -2.7738    1.0000 </r>
       <r>   -2.7662    1.0000 </r>
       <r>   -2.6931    1.0000 </r>
       <r>   -2.6641    1.0000 </r>
       <r>   -2.6366    1.0000 </r>
       <r>   -2.6240    1.0000 </r>
       <r>   -2.6090    1.0000 </r>
       <r>   -2.5934    1.0000 </r>
       <r>   -2.5713    1.0000 </r>
       <r>   -2.5268    1.0000 </r>
       <r>   -2.4857    1.0000 </r>
       <r>   -2.4571    1.0000 </r>
       <r>   -2.4208    1.0000 </r>
       <r>   -2.4080    1.0000 </r>
       <r>   -2.3894    1.0000 </r>
       <r>   -2.3792    1.0000 </r>
       <r>   -2.3394    1.0000 </r>
       <r>   -2.3176    1.0000 </r>
       <r>   -2.2908    1.0000 </r>
       <r>   -2.2625    1.0000 </r>
       <r>   -2.2451    1.0000 </r>
       <r>   -2.2202    1.0000 </r>
       <r>   -2.1929    1.0000 </r>
       <r>   -2.1742    1.0000 </r>
       <r>   -2.1437    1.0000 </r>
       <r>   -2.1286    1.0000 </r>
       <r>   -2.1121    1.0000 </r>
       <r>   -2.0755    1.0000 </r>
       <r>   -2.0570    1.0000 </r>
       <r>   -2.0457    1.0000 </r>
       <r>   -2.0293    1.0000 </r>
       <r>   -2.0060    1.0000 </r>
       <r>   -1.9977    1.0000 </r>
       <r>   -1.9755    1.0000 </r>
       <r>   -1.9683    1.0000 </r>
       <r>   -1.9574    1.0000 </r>
       <r>   -1.9479    1.0000 </r>
       <r>   -1.8909    1.0000 </r>
       <r>   -1.8774    1.0000 </r>
       <r>   -1.8266    1.0000 </r>
       <r>   -1.8183    1.0000 </r>
       <r>   -1.7993    1.0000 </r>
       <r>   -1.7649    1.0000 </r>
       <r>   -1.7311    1.0000 </r>
       <r>   -1.6862    1.0000 </r>
       <r>   -1.6737    1.0000 </r>
       <r>   -1.6702    1.0000 </r>
       <r>   -1.6510    1.0000 </r>
       <r>   -1.6443    1.0000 </r>
       <r>   -1.6329    1.0000 </r>
       <r>   -1.6275    1.0000 </r>
       <r>   -1.6142    1.0000 </r>
       <r>   -1.5784    1.0000 </r>
       <r>   -1.5750    1.0000 </r>
       <r>   -1.5498    1.0000 </r>
       <r>   -1.5463    1.0000 </r>
       <r>   -1.5383    1.0000 </r>
       <r>   -1.5318    1.0000 </r>
       <r>   -1.5183    1.0000 </r>
       <r>   -1.4933    1.0000 </r>
       <r>   -1.4803    1.0000 </r>
       <r>   -1.4452    1.0000 </r>
       <r>   -1.4061    1.0000 </r>
       <r>   -1.3972    1.0000 </r>
       <r>   -1.3832    1.0000 </r>
       <r>   -1.3679    1.0000 </r>
       <r>   -1.3466    1.0000 </r>
       <r>   -1.2610    1.0000 </r>
       <r>   -1.2151    1.0000 </r>
       <r>   -1.0877    1.0000 </r>
       <r>   -0.9682    1.0000 </r>
       <r>   -0.9233    1.0000 </r>
       <r>   -0.8742    1.0000 </r>
       <r>   -0.7628    1.0000 </r>
       <r>   -0.7360    1.0000 </r>
       <r>   -0.5325    1.0000 </r>
       <r>   -0.4739    1.0000 </r>
       <r>   -0.4140    1.0000 </r>
       <r>   -0.2484    1.0000 </r>
       <r>   -0.0421    1.0000 </r>
       <r>    0.0742    1.0000 </r>
       <r>    0.4449    0.5331 </r>
       <r>    0.8434   -0.0000 </r>
       <r>    0.9252   -0.0000 </r>
       <r>    1.2894   -0.0000 </r>
       <r>    1.3695   -0.0000 </r>
       <r>    1.6364   -0.0000 </r>
       <r>    1.7742   -0.0000 </r>
       <r>    1.8482   -0.0000 </r>
       <r>    1.8959   -0.0000 </r>
       <r>    2.1927   -0.0000 </r>
       <r>    2.7289    0.0000 </r>
       <r>    2.8968    0.0000 </r>
       <r>    2.9287    0.0000 </r>
       <r>    3.0515    0.0000 </r>
       <r>    3.4675    0.0000 </r>
       <r>    3.5525    0.0000 </r>
       <r>    3.6662    0.0000 </r>
       <r>    3.9333    0.0000 </r>
       <r>    4.0597    0.0000 </r>
       <r>    4.0695    0.0000 </r>
       <r>    4.3165    0.0000 </r>
       <r>    4.4938    0.0000 </r>
       <r>    4.5865    0.0000 </r>
       <r>    4.8472    0.0000 </r>
       <r>    4.8742    0.0000 </r>
       <r>    5.0998    0.0000 </r>
       <r>    5.1897    0.0000 </r>
       <r>    5.2160    0.0000 </r>
       <r>    5.2949    0.0000 </r>
       <r>    5.5519    0.0000 </r>
       <r>    5.6465    0.0000 </r>
       <r>    5.7102    0.0000 </r>
       <r>    5.8619    0.0000 </r>
       <r>    5.9537    0.0000 </r>
       <r>    6.0892    0.0000 </r>
       <r>    6.1624    0.0000 </r>
       <r>    6.4960    0.0000 </r>
       <r>    6.6940    0.0000 </r>
       <r>    6.7515    0.0000 </r>
       <r>    6.8231    0.0000 </r>
      </set>
      <set comment="kpoint 4">
       <r>  -17.1726    1.0000 </r>
       <r>   -7.8305    1.0000 </r>
       <r>   -7.1517    1.0000 </r>
       <r>   -7.1226    1.0000 </r>
       <r>   -6.7254    1.0000 </r>
       <r>   -6.1806    1.0000 </r>
       <r>   -6.1270    1.0000 </r>
       <r>   -5.9405    1.0000 </r>
       <r>   -5.9314    1.0000 </r>
       <r>   -5.8266    1.0000 </r>
       <r>   -5.7911    1.0000 </r>
       <r>   -5.7716    1.0000 </r>
       <r>   -5.7641    1.0000 </r>
       <r>   -5.7601    1.0000 </r>
       <r>   -5.7415    1.0000 </r>
       <r>   -5.6126    1.0000 </r>
       <r>   -5.5232    1.0000 </r>
       <r>   -5.5224    1.0000 </r>
       <r>   -5.5170    1.0000 </r>
       <r>   -5.4632    1.0000 </r>
       <r>   -5.4210    1.0000 </r>
       <r>   -5.3982    1.0000 </r>
       <r>   -5.3449    1.0000 </r>
       <r>   -5.3354    1.0000 </r>
       <r>   -5.3051    1.0000 </r>
       <r>   -5.2817    1.0000 </r>
       <r>   -5.2745    1.0000 </r>
       <r>   -5.2613    1.0000 </r>
       <r>   -5.2153    1.0000 </r>
       <r>   -5.1986    1.0000 </r>
       <r>   -5.1647    1.0000 </r>
       <r>   -5.1396    1.0000 </r>
       <r>   -5.0895    1.0000 </r>
       <r>   -5.0734    1.0000 </r>
       <r>   -5.0118    1.0000 </r>
       <r>   -4.9765    1.0000 </r>
       <r>   -4.9716    1.0000 </r>
       <r>   -4.9360    1.0000 </r>
       <r>   -4.8665    1.0000 </r>
       <r>   -4.8033    1.0000 </r>
       <r>   -4.7163    1.0000 </r>
       <r>   -4.6793    1.0000 </r>
       <r>   -4.6627    1.0000 </r>
       <r>   -4.6379    1.0000 </r>
       <r>   -4.6291    1.0000 </r>
       <r>   -4.5946    1.0000 </r>
       <r>   -4.5741    1.0000 </r>
       <r>   -4.5620    1.0000 </r>
       <r>   -4.5067    1.0000 </r>
       <r>   -4.4633    1.0000 </r>
       <r>   -4.4563    1.0000 </r>
       <r>   -4.3974    1.0000 </r>
       <r>   -4.3795    1.0000 </r>
       <r>   -4.3763    1.0000 </r>
       <r>   -4.3585    1.0000 </r>
       <r>   -4.3383    1.0000 </r>
       <r>   -4.3142    1.0000 </r>
       <r>   -4.2958    1.0000 </r>
       <r>   -4.2637    1.0000 </r>
       <r>   -4.2321    1.0000 </r>
       <r>   -4.2017    1.0000 </r>
       <r>   -4.1882    1.0000 </r>
       <r>   -4.1504    1.0000 </r>
       <r>   -4.1274    1.0000 </r>
       <r>   -4.1153    1.0000 </r>
       <r>   -4.0849    1.0000 </r>
       <r>   -4.0817    1.0000 </r>
       <r>   -4.0494    1.0000 </r>
       <r>   -4.0033    1.0000 </r>
       <r>   -3.9547    1.0000 </r>
       <r>   -3.9186    1.0000 </r>
       <r>   -3.8848    1.0000 </r>
       <r>   -3.8615    1.0000 </r>
       <r>   -3.8503    1.0000 </r>
       <r>   -3.8211    1.0000 </r>
       <r>   -3.8141    1.0000 </r>
       <r>   -3.7836    1.0000 </r>
       <r>   -3.7670    1.0000 </r>
       <r>   -3.7522    1.0000 </r>
       <r>   -3.7270    1.0000 </r>
       <r>   -3.6937    1.0000 </r>
       <r>   -3.6696    1.0000 </r>
       <r>   -3.6510    1.0000 </r>
       <r>   -3.6318    1.0000 </r>
       <r>   -3.6275    1.0000 </r>
       <r>   -3.5841    1.0000 </r>
       <r>   -3.5611    1.0000 </r>
       <r>   -3.5254    1.0000 </r>
       <r>   -3.5183    1.0000 </r>
       <r>   -3.4987    1.0000 </r>
       <r>   -3.4841    1.0000 </r>
       <r>   -3.4671    1.0000 </r>
       <r>   -3.4553    1.0000 </r>
       <r>   -3.4440    1.0000 </r>
       <r>   -3.4381    1.0000 </r>
       <r>   -3.4171    1.0000 </r>
       <r>   -3.4031    1.0000 </r>
       <r>   -3.3809    1.0000 </r>
       <r>   -3.3655    1.0000 </r>
       <r>   -3.3474    1.0000 </r>
       <r>   -3.3442    1.0000 </r>
       <r>   -3.3096    1.0000 </r>
       <r>   -3.3013    1.0000 </r>
       <r>   -3.2731    1.0000 </r>
       <r>   -3.2517    1.0000 </r>
       <r>   -3.1993    1.0000 </r>
       <r>   -3.1918    1.0000 </r>
       <r>   -3.1735    1.0000 </r>
       <r>   -3.1522    1.0000 </r>
       <r>   -3.1101    1.0000 </r>
       <r>   -3.0997    1.0000 </r>
       <r>   -3.0788    1.0000 </r>
       <r>   -3.0626    1.0000 </r>
       <r>   -3.0432    1.0000 </r>
       <r>   -3.0064    1.0000 </r>
       <r>   -2.9413    1.0000 </r>
       <r>   -2.9195    1.0000 </r>
       <r>   -2.8732    1.0000 </r>
       <r>   -2.8506    1.0000 </r>
       <r>   -2.8483    1.0000 </r>
       <r>   -2.8209    1.0000 </r>
       <r>   -2.7951    1.0000 </r>
       <r>   -2.7757    1.0000 </r>
       <r>   -2.7554    1.0000 </r>
       <r>   -2.7513    1.0000 </r>
       <r>   -2.7279    1.0000 </r>
       <r>   -2.7011    1.0000 </r>
       <r>   -2.6530    1.0000 </r>
       <r>   -2.5997    1.0000 </r>
       <r>   -2.5676    1.0000 </r>
       <r>   -2.5414    1.0000 </r>
       <r>   -2.5281    1.0000 </r>
       <r>   -2.5014    1.0000 </r>
       <r>   -2.4667    1.0000 </r>
       <r>   -2.4530    1.0000 </r>
       <r>   -2.4327    1.0000 </r>
       <r>   -2.4094    1.0000 </r>
       <r>   -2.3867    1.0000 </r>
       <r>   -2.3682    1.0000 </r>
       <r>   -2.3313    1.0000 </r>
       <r>   -2.2974    1.0000 </r>
       <r>   -2.2777    1.0000 </r>
       <r>   -2.2465    1.0000 </r>
       <r>   -2.2126    1.0000 </r>
       <r>   -2.1930    1.0000 </r>
[...]
       <r>    6.0104    0.0000 </r>
       <r>    6.0660    0.0000 </r>
       <r>    6.1647    0.0000 </r>
       <r>    6.6188    0.0000 </r>
       <r>    6.6931    0.0000 </r>
      </set>
     </set>
    </set>
   </array>
  </eigenvalues>
  <separator name="orbital magnetization" >
   <v name="MAGDIPOLOUT">      0.00000000      0.00000000      0.00000000</v>
  </separator>
  <dos>
   <i name="efermi">      0.44879790 </i>
   <total>
    <array>
     <dimension dim="1">gridpoints</dimension>
     <dimension dim="2">spin</dimension>
     <field>energy</field>
     <field>total</field>
     <field>integrated</field>
     <set>
      <set comment="spin 1">
       <r>   -18.3752     0.0000     0.0000 </r>
       <r>   -18.2871     0.0000     0.0000 </r>
       <r>   -18.1989     0.0000     0.0000 </r>
       <r>   -18.1107     0.0000     0.0000 </r>
       <r>   -18.0226    -0.0000    -0.0000 </r>
       <r>   -17.9344    -0.0000    -0.0000 </r>
       <r>   -17.8462    -0.0000    -0.0000 </r>
       <r>   -17.7580    -0.0000    -0.0000 </r>
       <r>   -17.6699    -0.0000    -0.0000 </r>
       <r>   -17.5817    -0.0000    -0.0000 </r>
       <r>   -17.4935    -0.0006    -0.0001 </r>
       <r>   -17.4054    -0.0545    -0.0049 </r>
       <r>   -17.3172    -0.6265    -0.0601 </r>
       <r>   -17.2290     2.8935     0.1950 </r>
       <r>   -17.1408    14.9245     1.5109 </r>
       <r>   -17.0527     6.3490     2.0707 </r>
       <r>   -16.9645    -0.6646     2.0121 </r>
       <r>   -16.8763    -0.1350     2.0002 </r>
       <r>   -16.7882    -0.0026     2.0000 </r>
       <r>   -16.7000    -0.0000     2.0000 </r>
       <r>   -16.6118    -0.0000     2.0000 </r>
       <r>   -16.5236    -0.0000     2.0000 </r>
       <r>   -16.4355     0.0000     2.0000 </r>
       <r>   -16.3473     0.0000     2.0000 </r>
       <r>   -16.2591     0.0000     2.0000 </r>
       <r>   -16.1710     0.0000     2.0000 </r>
       <r>   -16.0828     0.0000     2.0000 </r>
       <r>   -15.9946     0.0000     2.0000 </r>
       <r>   -15.9064     0.0000     2.0000 </r>
       <r>   -15.8183     0.0000     2.0000 </r>
       <r>   -15.7301     0.0000     2.0000 </r>
       <r>   -15.6419     0.0000     2.0000 </r>
       <r>   -15.5538     0.0000     2.0000 </r>
       <r>   -15.4656     0.0000     2.0000 </r>
       <r>   -15.3774     0.0000     2.0000 </r>
       <r>   -15.2893     0.0000     2.0000 </r>
       <r>   -15.2011     0.0000     2.0000 </r>
       <r>   -15.1129     0.0000     2.0000 </r>
       <r>   -15.0247     0.0000     2.0000 </r>
       <r>   -14.9366     0.0000     2.0000 </r>
       <r>   -14.8484     0.0000     2.0000 </r>
       <r>   -14.7602     0.0000     2.0000 </r>
       <r>   -14.6721     0.0000     2.0000 </r>
       <r>   -14.5839     0.0000     2.0000 </r>
       <r>   -14.4957     0.0000     2.0000 </r>
       <r>   -14.4075     0.0000     2.0000 </r>
       <r>   -14.3194     0.0000     2.0000 </r>
       <r>   -14.2312     0.0000     2.0000 </r>
       <r>   -14.1430     0.0000     2.0000 </r>
       <r>   -14.0549     0.0000     2.0000 </r>
       <r>   -13.9667     0.0000     2.0000 </r>
       <r>   -13.8785     0.0000     2.0000 </r>
       <r>   -13.7903     0.0000     2.0000 </r>
       <r>   -13.7022     0.0000     2.0000 </r>
       <r>   -13.6140     0.0000     2.0000 </r>
       <r>   -13.5258     0.0000     2.0000 </r>
       <r>   -13.4377     0.0000     2.0000 </r>
       <r>   -13.3495     0.0000     2.0000 </r>
       <r>   -13.2613     0.0000     2.0000 </r>
       <r>   -13.1732     0.0000     2.0000 </r>
       <r>   -13.0850     0.0000     2.0000 </r>
       <r>   -12.9968     0.0000     2.0000 </r>
       <r>   -12.9086     0.0000     2.0000 </r>
       <r>   -12.8205     0.0000     2.0000 </r>
       <r>   -12.7323     0.0000     2.0000 </r>
       <r>   -12.6441     0.0000     2.0000 </r>
       <r>   -12.5560     0.0000     2.0000 </r>
       <r>   -12.4678     0.0000     2.0000 </r>
       <r>   -12.3796     0.0000     2.0000 </r>
       <r>   -12.2914     0.0000     2.0000 </r>
       <r>   -12.2033     0.0000     2.0000 </r>
       <r>   -12.1151     0.0000     2.0000 </r>
       <r>   -12.0269     0.0000     2.0000 </r>
       <r>   -11.9388     0.0000     2.0000 </r>
       <r>   -11.8506     0.0000     2.0000 </r>
       <r>   -11.7624     0.0000     2.0000 </r>
       <r>   -11.6742     0.0000     2.0000 </r>
       <r>   -11.5861     0.0000     2.0000 </r>
       <r>   -11.4979     0.0000     2.0000 </r>
       <r>   -11.4097     0.0000     2.0000 </r>
       <r>   -11.3216     0.0000     2.0000 </r>
       <r>   -11.2334     0.0000     2.0000 </r>
       <r>   -11.1452     0.0000     2.0000 </r>
       <r>   -11.0570     0.0000     2.0000 </r>
       <r>   -10.9689     0.0000     2.0000 </r>
       <r>   -10.8807     0.0000     2.0000 </r>
       <r>   -10.7925     0.0000     2.0000 </r>
       <r>   -10.7044     0.0000     2.0000 </r>
       <r>   -10.6162     0.0000     2.0000 </r>
       <r>   -10.5280     0.0000     2.0000 </r>
       <r>   -10.4399     0.0000     2.0000 </r>
       <r>   -10.3517     0.0000     2.0000 </r>
       <r>   -10.2635     0.0000     2.0000 </r>
       <r>   -10.1753     0.0000     2.0000 </r>
       <r>   -10.0872     0.0000     2.0000 </r>
       <r>    -9.9990     0.0000     2.0000 </r>
       <r>    -9.9108     0.0000     2.0000 </r>
       <r>    -9.8227     0.0000     2.0000 </r>
       <r>    -9.7345     0.0000     2.0000 </r>
       <r>    -9.6463     0.0000     2.0000 </r>
       <r>    -9.5581     0.0000     2.0000 </r>
       <r>    -9.4700     0.0000     2.0000 </r>
       <r>    -9.3818     0.0000     2.0000 </r>
       <r>    -9.2936     0.0000     2.0000 </r>
       <r>    -9.2055     0.0000     2.0000 </r>
       <r>    -9.1173     0.0000     2.0000 </r>
       <r>    -9.0291    -0.0000     2.0000 </r>
       <r>    -8.9409    -0.0000     2.0000 </r>
       <r>    -8.8528    -0.0000     2.0000 </r>
       <r>    -8.7646    -0.0000     2.0000 </r>
       <r>    -8.6764    -0.0000     2.0000 </r>
       <r>    -8.5883    -0.0000     2.0000 </r>
       <r>    -8.5001    -0.0024     1.9998 </r>
       <r>    -8.4119    -0.0974     1.9912 </r>
       <r>    -8.3237    -0.2634     1.9680 </r>
       <r>    -8.2356     4.0983     2.3293 </r>
       <r>    -8.1474     7.0495     2.9509 </r>
       <r>    -8.0592     0.8097     3.0223 </r>
       <r>    -7.9711    -0.5911     2.9702 </r>
       <r>    -7.8829     1.6327     3.1141 </r>
       <r>    -7.7947     7.5352     3.7785 </r>
       <r>    -7.7066     2.9140     4.0354 </r>
       <r>    -7.6184    -0.3407     4.0054 </r>
       <r>    -7.5302    -0.0603     4.0001 </r>
       <r>    -7.4420    -0.0036     3.9998 </r>
       <r>    -7.3539    -0.1225     3.9890 </r>
       <r>    -7.2657    -0.7292     3.9247 </r>
       <r>    -7.1775     5.2152     4.3845 </r>
       <r>    -7.0894    19.7958     6.1299 </r>
       <r>    -7.0012    10.1268     7.0228 </r>
       <r>    -6.9130     1.8274     7.1839 </r>
       <r>    -6.8248     7.1391     7.8134 </r>
       <r>    -6.7367     6.8140     8.4142 </r>
       <r>    -6.6485     6.3581     8.9748 </r>
       <r>    -6.5603     0.1746     8.9902 </r>
       <r>    -6.4722     0.0827     8.9975 </r>
       <r>    -6.3840    11.0188     9.9690 </r>
       <r>    -6.2958    10.7252    10.9147 </r>
       <r>    -6.2076     4.8232    11.3399 </r>
       <r>    -6.1195    23.2657    13.3913 </r>
       <r>    -6.0313    32.7757    16.2812 </r>
       <r>    -5.9431    34.7150    19.3420 </r>
       <r>    -5.8550    27.5521    21.7713 </r>
       <r>    -5.7668    46.6671    25.8860 </r>
       <r>    -5.6786    51.0938    30.3910 </r>
       <r>    -5.5905    28.7499    32.9259 </r>
       <r>    -5.5023    42.9034    36.7087 </r>
       <r>    -5.4141    50.0715    41.1236 </r>
       <r>    -5.3259    62.9557    46.6744 </r>
       <r>    -5.2378    96.8024    55.2096 </r>
       <r>    -5.1496    78.1466    62.0998 </r>
       <r>    -5.0614    51.8319    66.6699 </r>
       <r>    -4.9733    54.7006    71.4929 </r>
       <r>    -4.8851    52.6434    76.1345 </r>
       <r>    -4.7969    42.2862    79.8630 </r>
       <r>    -4.7087    39.3403    83.3316 </r>
       <r>    -4.6206    70.9393    89.5864 </r>
       <r>    -4.5324    70.6194    95.8130 </r>
       <r>    -4.4442    48.8808   100.1228 </r>
       <r>    -4.3561    76.7961   106.8940 </r>
       <r>    -4.2679    77.3927   113.7178 </r>
       <r>    -4.1797    65.7803   119.5177 </r>
       <r>    -4.0915    76.9698   126.3042 </r>
       <r>    -4.0034    73.5747   132.7914 </r>
       <r>    -3.9152    70.4069   138.9992 </r>
       <r>    -3.8270    80.5100   146.0979 </r>
       <r>    -3.7389    94.8552   154.4613 </r>
       <r>    -3.6507   103.7494   163.6090 </r>
       <r>    -3.5625   102.2785   172.6270 </r>
       <r>    -3.4743   110.2696   182.3496 </r>
       <r>    -3.3862   120.7233   192.9939 </r>
       <r>    -3.2980    94.2519   201.3041 </r>
       <r>    -3.2098    81.8685   208.5225 </r>
       <r>    -3.1217    91.0695   216.5522 </r>
       <r>    -3.0335    81.7284   223.7583 </r>
       <r>    -2.9453    61.7400   229.2020 </r>
       <r>    -2.8572    72.2602   235.5732 </r>
       <r>    -2.7690    95.7111   244.0122 </r>
       <r>    -2.6808    77.9933   250.8889 </r>
       <r>    -2.5926    70.2011   257.0786 </r>
       <r>    -2.5045    73.5597   263.5644 </r>
       <r>    -2.4163    77.6286   270.4090 </r>
       <r>    -2.3281    80.6380   277.5189 </r>
       <r>    -2.2400    81.1525   284.6742 </r>
       <r>    -2.1518    95.5633   293.1001 </r>
       <r>    -2.0636    95.0428   301.4801 </r>
       <r>    -1.9754    95.0060   309.8569 </r>
       <r>    -1.8873    77.0732   316.6525 </r>
       <r>    -1.7991    65.5352   322.4308 </r>
       <r>    -1.7109    68.6720   328.4857 </r>
       <r>    -1.6228   108.3409   338.0382 </r>
       <r>    -1.5346   140.3505   350.4131 </r>
       <r>    -1.4464   117.2795   360.7537 </r>
       <r>    -1.3582    87.6736   368.4840 </r>
       <r>    -1.2701    64.9709   374.2125 </r>
       <r>    -1.1819    35.7276   377.3626 </r>
       <r>    -1.0937    15.2509   378.7073 </r>
       <r>    -1.0056    18.6911   380.3553 </r>
       <r>    -0.9174    27.1915   382.7528 </r>
       <r>    -0.8292    27.7899   385.2031 </r>
       <r>    -0.7410    25.9422   387.4905 </r>
       <r>    -0.6529    16.5895   388.9532 </r>
       <r>    -0.5647    10.3184   389.8630 </r>
       <r>    -0.4765    21.1932   391.7316 </r>
       <r>    -0.3884    18.4086   393.3547 </r>
       <r>    -0.3002    10.1780   394.2521 </r>
       <r>    -0.2120    14.1415   395.4990 </r>
       <r>    -0.1239     6.0956   396.0364 </r>
       <r>    -0.0357     4.8914   396.4677 </r>
       <r>     0.0525    15.0355   397.7934 </r>
       <r>     0.1407    12.6908   398.9123 </r>
       <r>     0.2288     0.8565   398.9879 </r>
       <r>     0.3170     3.9496   399.3361 </r>
       <r>     0.4052    17.1949   400.8522 </r>
       <r>     0.4933    25.8977   403.1356 </r>
       <r>     0.5815    10.4806   404.0597 </r>
       <r>     0.6697    -0.5945   404.0073 </r>
       <r>     0.7579     7.9731   404.7103 </r>
       <r>     0.8460    17.9843   406.2960 </r>
       <r>     0.9342    18.2755   407.9073 </r>
       <r>     1.0224    19.2872   409.6079 </r>
       <r>     1.1105    10.4214   410.5268 </r>
       <r>     1.1987     5.6546   411.0253 </r>
       <r>     1.2869    12.8814   412.1611 </r>
       <r>     1.3751    15.5979   413.5364 </r>
       <r>     1.4632    10.1516   414.4315 </r>
       <r>     1.5514     6.3065   414.9875 </r>
       <r>     1.6396     5.6787   415.4882 </r>
       <r>     1.7277     6.7096   416.0798 </r>
       <r>     1.8159    10.6942   417.0227 </r>
       <r>     1.9041    19.6218   418.7528 </r>
       <r>     1.9922    13.1116   419.9089 </r>
       <r>     2.0804     2.6571   420.1431 </r>
       <r>     2.1686    19.8075   421.8896 </r>
       <r>     2.2568    21.7286   423.8054 </r>
       <r>     2.3449     2.8330   424.0552 </r>
       <r>     2.4331     8.7477   424.8265 </r>
       <r>     2.5213    12.1027   425.8936 </r>
       <r>     2.6094     1.8153   426.0537 </r>
       <r>     2.6976     9.7543   426.9137 </r>
       <r>     2.7858    15.4330   428.2745 </r>
       <r>     2.8740    19.2908   429.9753 </r>
       <r>     2.9621    27.6391   432.4123 </r>
       <r>     3.0503    13.0565   433.5635 </r>
       <r>     3.1385     9.8850   434.4351 </r>
       <r>     3.2266    11.0514   435.4095 </r>
       <r>     3.3148     5.0539   435.8551 </r>
       <r>     3.4030     3.0986   436.1283 </r>
       <r>     3.4912    13.5941   437.3269 </r>
       <r>     3.5793    19.4147   439.0387 </r>
       <r>     3.6675    17.7500   440.6037 </r>
       <r>     3.7557     4.8894   441.0348 </r>
       <r>     3.8438    -0.9178   440.9539 </r>
       <r>     3.9320     7.3112   441.5986 </r>
       <r>     4.0202    22.8660   443.6147 </r>
       <r>     4.1084    27.3567   446.0267 </r>
       <r>     4.1965    10.2857   446.9336 </r>
       <r>     4.2847     4.0746   447.2929 </r>
       <r>     4.3729    13.6604   448.4973 </r>
       <r>     4.4610     9.6415   449.3474 </r>
       <r>     4.5492    16.6812   450.8182 </r>
       <r>     4.6374    12.1732   451.8916 </r>
       <r>     4.7255     6.0961   452.4291 </r>
       <r>     4.8137     9.2158   453.2416 </r>
       <r>     4.9019    19.2282   454.9370 </r>
       <r>     4.9901    12.2288   456.0152 </r>
       <r>     5.0782     4.2069   456.3862 </r>
       <r>     5.1664    11.0490   457.3604 </r>
       <r>     5.2546    18.9807   459.0339 </r>
       <r>     5.3427    18.0305   460.6237 </r>
       <r>     5.4309    10.7086   461.5679 </r>
       <r>     5.5191    13.2558   462.7366 </r>
       <r>     5.6073    16.4077   464.1833 </r>
       <r>     5.6954    15.7823   465.5749 </r>
       <r>     5.7836    18.4191   467.1989 </r>
       <r>     5.8718    24.1103   469.3247 </r>
       <r>     5.9599    33.6085   472.2880 </r>
       <r>     6.0481    25.9628   474.5772 </r>
       <r>     6.1363    22.0263   476.5193 </r>
       <r>     6.2245    18.1133   478.1163 </r>
       <r>     6.3126     3.2683   478.4045 </r>
       <r>     6.4008     1.3021   478.5193 </r>
       <r>     6.4890     2.8094   478.7670 </r>
       <r>     6.5771     5.1841   479.2241 </r>
       <r>     6.6653    14.9514   480.5424 </r>
       <r>     6.7535    21.3688   482.4265 </r>
       <r>     6.8417    13.8028   483.6435 </r>
       <r>     6.9298     4.1525   484.0096 </r>
       <r>     7.0180     0.0608   484.0150 </r>
       <r>     7.1062    -0.1595   484.0009 </r>
       <r>     7.1943    -0.0102   484.0000 </r>
       <r>     7.2825    -0.0001   484.0000 </r>
       <r>     7.3707    -0.0000   484.0000 </r>
       <r>     7.4588    -0.0000   484.0000 </r>
       <r>     7.5470    -0.0000   484.0000 </r>
       <r>     7.6352     0.0000   484.0000 </r>
       <r>     7.7234     0.0000   484.0000 </r>
       <r>     7.8115     0.0000   484.0000 </r>
       <r>     7.8997     0.0000   484.0000 </r>
       <r>     7.9879     0.0000   484.0000 </r>
       <r>     8.0760     0.0000   484.0000 </r>
      </set>
     </set>
    </array>
   </total>
  </dos>
 </calculation>
 <structure name="finalpos" >
  <crystal>
   <varray name="basis" >
    <v>       8.80347943       0.00000000       0.00000000 </v>
    <v>       4.40173971       7.62403682       0.00000000 </v>
    <v>       0.00000000       0.00000000      23.18801085 </v>
   </varray>
   <i name="volume">   1556.33410245 </i>
   <varray name="rec_basis" >
    <v>       0.11359145      -0.06558205       0.00000000 </v>
    <v>       0.00000000       0.13116411       0.00000000 </v>
    <v>       0.00000000       0.00000000       0.04312573 </v>
   </varray>
  </crystal>
  <varray name="positions" >
   <v>       0.00000000       0.00000000       0.00000000 </v>
   <v>       0.33333333       0.00000000       0.00000000 </v>
   <v>       0.66666667       0.00000000       0.00000000 </v>
   <v>       0.00000000       0.33333333       0.00000000 </v>
   <v>       0.33333333       0.33333333       0.00000000 </v>
   <v>       0.66666667       0.33333333       0.00000000 </v>
   <v>       0.00000000       0.66666667       0.00000000 </v>
   <v>       0.33333333       0.66666667       0.00000000 </v>
   <v>       0.66666667       0.66666667       0.00000000 </v>
   <v>       0.11111111       0.11111111       0.10332942 </v>
   <v>       0.44444444       0.11111111       0.10332942 </v>
   <v>       0.77777778       0.11111111       0.10332942 </v>
   <v>       0.11111111       0.44444444       0.10332942 </v>
   <v>       0.44444444       0.44444444       0.10332942 </v>
   <v>       0.77777778       0.44444444       0.10332942 </v>
   <v>       0.11111111       0.77777778       0.10332942 </v>
   <v>       0.44444444       0.77777778       0.10332942 </v>
   <v>       0.77777778       0.77777778       0.10332942 </v>
   <v>       0.89064650       0.22299021       0.20784995 </v>
   <v>       0.22047338       0.22269691       0.20800869 </v>
   <v>       0.55600325       0.22109049       0.20515214 </v>
   <v>       0.89040413       0.55412417       0.20646211 </v>
   <v>       0.21942275       0.55770917       0.20513845 </v>
   <v>       0.55519065       0.55691663       0.20481299 </v>
   <v>       0.89100054       0.89251006       0.20616657 </v>
   <v>       0.22119881       0.89255653       0.20781768 </v>
   <v>       0.55207020       0.89252565       0.20643141 </v>
   <v>       0.99966342       0.00229782       0.31425052 </v>
   <v>       0.35985965       0.99234835       0.31329211 </v>
   <v>       0.67500419       0.00291012       0.30985712 </v>
   <v>       0.98884967       0.36292359       0.31344223 </v>
   <v>       0.33696496       0.33990231       0.30766115 </v>
   <v>       0.66382041       0.33820606       0.30829183 </v>
   <v>       0.00038784       0.67754244       0.30990825 </v>
   <v>       0.33543207       0.66679147       0.30824933 </v>
   <v>       0.66767596       0.67082633       0.30788124 </v>
   <v>       0.12878318       0.13170750       0.36299485 </v>
  </varray>
  <varray name="selective"  type="logical" >
   <v type="logical" >  F  F  F </v>
   <v type="logical" >  F  F  F </v>
   <v type="logical" >  F  F  F </v>
   <v type="logical" >  F  F  F </v>
   <v type="logical" >  F  F  F </v>
   <v type="logical" >  F  F  F </v>
   <v type="logical" >  F  F  F </v>
   <v type="logical" >  F  F  F </v>
   <v type="logical" >  F  F  F </v>
   <v type="logical" >  F  F  F </v>
   <v type="logical" >  F  F  F </v>
   <v type="logical" >  F  F  F </v>
   <v type="logical" >  F  F  F </v>
   <v type="logical" >  F  F  F </v>
   <v type="logical" >  F  F  F </v>
   <v type="logical" >  F  F  F </v>
   <v type="logical" >  F  F  F </v>
   <v type="logical" >  F  F  F </v>
   <v type="logical" >  T  T  T </v>
   <v type="logical" >  T  T  T </v>
   <v type="logical" >  T  T  T </v>
   <v type="logical" >  T  T  T </v>
   <v type="logical" >  T  T  T </v>
   <v type="logical" >  T  T  T </v>
   <v type="logical" >  T  T  T </v>
   <v type="logical" >  T  T  T </v>
   <v type="logical" >  T  T  T </v>
   <v type="logical" >  T  T  T </v>
   <v type="logical" >  T  T  T </v>
   <v type="logical" >  T  T  T </v>
   <v type="logical" >  T  T  T </v>
   <v type="logical" >  T  T  T </v>
   <v type="logical" >  T  T  T </v>
   <v type="logical" >  T  T  T </v>
   <v type="logical" >  T  T  T </v>
   <v type="logical" >  T  T  T </v>
   <v type="logical" >  T  T  T </v>
  </varray>
  <nose>
   <v>      -3.00000000       0.00000000       0.00010000       0.00010000 </v>
  </nose>
 </structure>
</modeling>
