unknown system                          
           1
     8.803479    0.000000    0.000000
     4.401740    7.624037    0.000000
     0.000000    0.000000   23.188011
   Au   O 
    36     1
Direct configuration=     1
   0.00000000  0.00000000  0.00000000
   0.33333333  0.00000000  0.00000000
   0.66666667  0.00000000  0.00000000
   0.00000000  0.33333333  0.00000000
   0.33333333  0.33333333  0.00000000
   0.66666667  0.33333333  0.00000000
   0.00000000  0.66666667  0.00000000
   0.33333333  0.66666667  0.00000000
   0.66666667  0.66666667  0.00000000
   0.11111111  0.11111111  0.10332942
   0.44444444  0.11111111  0.10332942
   0.77777778  0.11111111  0.10332942
   0.11111111  0.44444444  0.10332942
   0.44444444  0.44444444  0.10332942
   0.77777778  0.44444444  0.10332942
   0.11111111  0.77777778  0.10332942
   0.44444444  0.77777778  0.10332942
   0.77777778  0.77777778  0.10332942
   0.89064650  0.22299021  0.20784995
   0.22047338  0.22269691  0.20800869
   0.55600325  0.22109049  0.20515214
   0.89040413  0.55412417  0.20646211
   0.21942275  0.55770917  0.20513845
   0.55519065  0.55691663  0.20481299
   0.89100054  0.89251006  0.20616657
   0.22119881  0.89255653  0.20781768
   0.55207020  0.89252565  0.20643141
   0.99966342  0.00229782  0.31425052
   0.35985965  0.99234835  0.31329211
   0.67500419  0.00291012  0.30985712
   0.98884967  0.36292359  0.31344223
   0.33696496  0.33990231  0.30766115
   0.66382041  0.33820606  0.30829183
   0.00038784  0.67754244  0.30990825
   0.33543207  0.66679147  0.30824933
   0.66767596  0.67082633  0.30788124
   0.12878318  0.13170750  0.36299485
