  39  39   0   0
  0.3566249E+02  0.8358002E-09  0.8358002E-09  0.1991000E-08  0.5000000E-15
   1.0000000000000000E-004
  CAR 
 unknown system                          
      7.14729476    -15.18489863  301      0.82404788      1.00000000
    -15.185  0.0000E+00  0.0000E+00
    -15.110  0.0000E+00  0.0000E+00
    -15.036 -0.1700E-30 -0.1266E-31
    -14.962 -0.3562E-25 -0.2651E-26
    -14.887 -0.2441E-20 -0.1817E-21
    -14.813 -0.5465E-16 -0.4068E-17
    -14.738 -0.3864E-12 -0.2877E-13
    -14.664 -0.9042E-09 -0.6734E-10
    -14.589 -0.6786E-06 -0.5058E-07
    -14.515 -0.1607E-03 -0.1201E-04
    -14.440 -0.1159E-01 -0.8746E-03
    -14.366 -0.2302E+00 -0.1801E-01
    -14.292 -0.7105E+00 -0.7090E-01
    -14.217  0.4839E+01  0.2893E+00
    -14.143  0.1546E+02  0.1440E+01
    -14.068  0.8237E+01  0.2053E+01
    -13.994 -0.2844E+00  0.2032E+01
    -13.919 -0.4003E+00  0.2002E+01
    -13.845 -0.2999E-01  0.2000E+01
    -13.771 -0.5821E-03  0.2000E+01
    -13.696 -0.3384E-05  0.2000E+01
    -13.622 -0.6163E-08  0.2000E+01
    -13.547 -0.3591E-11  0.2000E+01
    -13.473  0.0000E+00  0.2000E+01
    -13.398  0.0000E+00  0.2000E+01
    -13.324  0.0000E+00  0.2000E+01
    -13.249  0.0000E+00  0.2000E+01
    -13.175  0.0000E+00  0.2000E+01
    -13.101  0.0000E+00  0.2000E+01
    -13.026  0.0000E+00  0.2000E+01
    -12.952  0.0000E+00  0.2000E+01
    -12.877  0.0000E+00  0.2000E+01
    -12.803  0.0000E+00  0.2000E+01
    -12.728  0.0000E+00  0.2000E+01
    -12.654  0.0000E+00  0.2000E+01
    -12.579  0.0000E+00  0.2000E+01
    -12.505  0.0000E+00  0.2000E+01
    -12.431  0.0000E+00  0.2000E+01
    -12.356  0.0000E+00  0.2000E+01
    -12.282  0.0000E+00  0.2000E+01
    -12.207  0.0000E+00  0.2000E+01
    -12.133  0.0000E+00  0.2000E+01
    -12.058  0.0000E+00  0.2000E+01
    -11.984  0.0000E+00  0.2000E+01
    -11.910  0.0000E+00  0.2000E+01
    -11.835  0.0000E+00  0.2000E+01
    -11.761  0.0000E+00  0.2000E+01
    -11.686  0.0000E+00  0.2000E+01
    -11.612  0.0000E+00  0.2000E+01
    -11.537  0.0000E+00  0.2000E+01
    -11.463  0.0000E+00  0.2000E+01
    -11.388  0.0000E+00  0.2000E+01
    -11.314  0.0000E+00  0.2000E+01
    -11.240  0.0000E+00  0.2000E+01
    -11.165  0.0000E+00  0.2000E+01
    -11.091  0.0000E+00  0.2000E+01
    -11.016  0.0000E+00  0.2000E+01
    -10.942  0.0000E+00  0.2000E+01
    -10.867  0.0000E+00  0.2000E+01
    -10.793  0.0000E+00  0.2000E+01
    -10.718  0.0000E+00  0.2000E+01
    -10.644  0.0000E+00  0.2000E+01
    -10.570  0.0000E+00  0.2000E+01
    -10.495  0.0000E+00  0.2000E+01
    -10.421  0.0000E+00  0.2000E+01
    -10.346  0.0000E+00  0.2000E+01
    -10.272  0.0000E+00  0.2000E+01
    -10.197  0.0000E+00  0.2000E+01
    -10.123  0.0000E+00  0.2000E+01
    -10.048  0.0000E+00  0.2000E+01
     -9.974  0.0000E+00  0.2000E+01
     -9.900  0.0000E+00  0.2000E+01
     -9.825  0.0000E+00  0.2000E+01
     -9.751  0.0000E+00  0.2000E+01
     -9.676  0.0000E+00  0.2000E+01
     -9.602  0.0000E+00  0.2000E+01
     -9.527  0.0000E+00  0.2000E+01
     -9.453  0.0000E+00  0.2000E+01
     -9.379  0.0000E+00  0.2000E+01
     -9.304  0.0000E+00  0.2000E+01
     -9.230  0.0000E+00  0.2000E+01
     -9.155  0.0000E+00  0.2000E+01
     -9.081  0.0000E+00  0.2000E+01
     -9.006  0.0000E+00  0.2000E+01
     -8.932  0.0000E+00  0.2000E+01
     -8.857  0.0000E+00  0.2000E+01
     -8.783  0.0000E+00  0.2000E+01
     -8.709  0.0000E+00  0.2000E+01
     -8.634  0.0000E+00  0.2000E+01
     -8.560  0.0000E+00  0.2000E+01
     -8.485  0.0000E+00  0.2000E+01
     -8.411  0.0000E+00  0.2000E+01
     -8.336  0.0000E+00  0.2000E+01
     -8.262  0.0000E+00  0.2000E+01
     -8.187  0.0000E+00  0.2000E+01
     -8.113  0.0000E+00  0.2000E+01
     -8.039  0.0000E+00  0.2000E+01
     -7.964  0.0000E+00  0.2000E+01
     -7.890  0.0000E+00  0.2000E+01
     -7.815  0.0000E+00  0.2000E+01
     -7.741  0.0000E+00  0.2000E+01
     -7.666  0.0000E+00  0.2000E+01
     -7.592  0.0000E+00  0.2000E+01
     -7.518  0.0000E+00  0.2000E+01
     -7.443  0.0000E+00  0.2000E+01
     -7.369  0.0000E+00  0.2000E+01
     -7.294 -0.5669E-28  0.2000E+01
     -7.220 -0.7082E-23  0.2000E+01
     -7.145 -0.2893E-18  0.2000E+01
     -7.071 -0.3854E-14  0.2000E+01
     -6.996 -0.1612E-10  0.2000E+01
     -6.922 -0.2232E-07  0.2000E+01
     -6.848 -0.9849E-05  0.2000E+01
     -6.773 -0.1354E-02  0.2000E+01
     -6.699 -0.5490E-01  0.1996E+01
     -6.624 -0.5411E+00  0.1956E+01
     -6.550  0.4212E+00  0.1987E+01
     -6.475  0.1070E+02  0.2783E+01
     -6.401  0.1438E+02  0.3853E+01
     -6.326  0.2859E+01  0.4066E+01
     -6.252 -0.7391E+00  0.4011E+01
     -6.178 -0.1456E+00  0.4000E+01
     -6.103 -0.5648E-02  0.4000E+01
     -6.029 -0.6220E-04  0.4000E+01
     -5.954 -0.2106E-06  0.4000E+01
     -5.880 -0.2259E-09  0.4000E+01
     -5.805 -0.8207E-12  0.4000E+01
     -5.731 -0.1567E-08  0.4000E+01
     -5.656 -0.1063E-05  0.4000E+01
     -5.582 -0.2281E-03  0.4000E+01
     -5.508 -0.1492E-01  0.3999E+01
     -5.433 -0.2669E+00  0.3979E+01
     -5.359 -0.6756E+00  0.3929E+01
     -5.284  0.5213E+01  0.4317E+01
     -5.210  0.1526E+02  0.5453E+01
     -5.135  0.1540E+02  0.6599E+01
     -5.061  0.1504E+02  0.7718E+01
     -4.987  0.4745E+01  0.8072E+01
     -4.912 -0.7051E+00  0.8019E+01
     -4.838 -0.2437E+00  0.8001E+01
     -4.763 -0.1290E-01  0.8000E+01
     -4.689 -0.1887E-03  0.8000E+01
     -4.614 -0.9619E-06  0.8000E+01
     -4.540 -0.4146E-04  0.8000E+01
     -4.465 -0.4593E-02  0.8000E+01
     -4.391 -0.1514E+00  0.7988E+01
     -4.317 -0.1179E+01  0.7901E+01
     -4.242  0.1980E+01  0.8048E+01
     -4.168  0.2301E+02  0.9761E+01
     -4.093  0.2637E+02  0.1172E+02
     -4.019  0.5471E+01  0.1213E+02
     -3.944  0.9647E+01  0.1285E+02
     -3.870  0.1281E+02  0.1380E+02
     -3.795  0.1176E+02  0.1468E+02
     -3.721  0.4488E+02  0.1802E+02
     -3.647  0.8562E+02  0.2439E+02
     -3.572  0.7232E+02  0.2978E+02
     -3.498  0.7254E+02  0.3518E+02
     -3.423  0.5751E+02  0.3946E+02
     -3.349  0.3271E+02  0.4189E+02
     -3.274  0.5290E+02  0.4583E+02
     -3.200  0.5450E+02  0.4989E+02
     -3.126  0.6594E+02  0.5480E+02
     -3.051  0.9163E+02  0.6162E+02
     -2.977  0.6477E+02  0.6644E+02
     -2.902  0.4835E+02  0.7004E+02
     -2.828  0.6754E+02  0.7507E+02
     -2.753  0.1235E+03  0.8426E+02
     -2.679  0.7615E+02  0.8993E+02
     -2.604  0.1837E+02  0.9130E+02
     -2.530  0.3856E+02  0.9417E+02
     -2.456  0.6574E+02  0.9906E+02
     -2.381  0.7105E+02  0.1043E+03
     -2.307  0.9078E+02  0.1111E+03
     -2.232  0.6959E+02  0.1163E+03
     -2.158  0.4840E+02  0.1199E+03
     -2.083  0.4403E+02  0.1232E+03
     -2.009  0.5393E+02  0.1272E+03
     -1.934  0.8703E+02  0.1337E+03
     -1.860  0.7441E+02  0.1392E+03
     -1.786  0.6357E+02  0.1439E+03
     -1.711  0.5667E+02  0.1481E+03
     -1.637  0.5433E+02  0.1522E+03
     -1.562  0.9790E+02  0.1595E+03
     -1.488  0.1375E+03  0.1697E+03
     -1.413  0.1043E+03  0.1775E+03
     -1.339  0.6265E+02  0.1821E+03
     -1.264  0.9836E+02  0.1895E+03
     -1.190  0.9834E+02  0.1968E+03
     -1.116  0.7389E+02  0.2023E+03
     -1.041  0.6360E+02  0.2070E+03
     -0.967  0.6443E+02  0.2118E+03
     -0.892  0.6512E+02  0.2167E+03
     -0.818  0.4389E+02  0.2199E+03
     -0.743  0.6735E+02  0.2249E+03
     -0.669  0.1235E+03  0.2341E+03
     -0.595  0.1395E+03  0.2445E+03
     -0.520  0.1035E+03  0.2522E+03
     -0.446  0.7355E+02  0.2577E+03
     -0.371  0.5085E+02  0.2615E+03
     -0.297  0.8931E+02  0.2681E+03
     -0.222  0.1036E+03  0.2758E+03
     -0.148  0.5908E+02  0.2802E+03
     -0.073  0.7036E+02  0.2855E+03
      0.001  0.1114E+03  0.2938E+03
      0.075  0.8351E+02  0.3000E+03
      0.150  0.3993E+02  0.3030E+03
      0.224  0.5391E+02  0.3070E+03
      0.299  0.9259E+02  0.3139E+03
      0.373  0.1188E+03  0.3227E+03
      0.448  0.9506E+02  0.3298E+03
      0.522  0.8009E+02  0.3357E+03
      0.597  0.1272E+03  0.3452E+03
      0.671  0.1159E+03  0.3538E+03
      0.745  0.7960E+02  0.3598E+03
      0.820  0.1040E+03  0.3675E+03
      0.894  0.1009E+03  0.3750E+03
      0.969  0.4467E+02  0.3783E+03
      1.043  0.1918E+02  0.3798E+03
      1.118  0.2646E+02  0.3817E+03
      1.192  0.2681E+02  0.3837E+03
      1.266  0.5155E+01  0.3841E+03
      1.341 -0.1417E+01  0.3840E+03
      1.415 -0.5240E+00  0.3840E+03
      1.490 -0.1156E+01  0.3839E+03
      1.564  0.3080E+01  0.3841E+03
      1.639  0.2388E+02  0.3859E+03
      1.713  0.3777E+02  0.3887E+03
      1.788  0.2079E+02  0.3903E+03
      1.862  0.2442E+02  0.3921E+03
      1.936  0.3096E+02  0.3944E+03
      2.011  0.1789E+02  0.3957E+03
      2.085  0.4988E+01  0.3961E+03
      2.160  0.9706E+01  0.3968E+03
      2.234  0.1697E+02  0.3981E+03
      2.309  0.2811E+02  0.4002E+03
      2.383  0.2362E+02  0.4019E+03
      2.458  0.2412E+01  0.4021E+03
      2.532 -0.1460E+01  0.4020E+03
      2.606 -0.9034E+00  0.4019E+03
      2.681  0.4303E+01  0.4023E+03
      2.755  0.1526E+02  0.4034E+03
      2.830  0.8859E+01  0.4040E+03
      2.904 -0.1434E+00  0.4040E+03
      2.979 -0.4824E+00  0.4040E+03
      3.053 -0.5044E+00  0.4040E+03
      3.127  0.1946E+00  0.4040E+03
      3.202  0.8917E+01  0.4046E+03
      3.276  0.1418E+02  0.4057E+03
      3.351  0.1184E+02  0.4066E+03
      3.425  0.1771E+02  0.4079E+03
      3.500  0.1993E+02  0.4094E+03
      3.574  0.2135E+02  0.4110E+03
      3.649  0.2304E+02  0.4127E+03
      3.723  0.2077E+02  0.4142E+03
      3.797  0.1706E+02  0.4155E+03
      3.872  0.7853E+01  0.4161E+03
      3.946  0.1071E+02  0.4169E+03
      4.021  0.1254E+02  0.4178E+03
      4.095  0.5821E+01  0.4182E+03
      4.170  0.1360E+02  0.4193E+03
      4.244  0.9864E+01  0.4200E+03
      4.319  0.9423E+01  0.4207E+03
      4.393  0.1888E+02  0.4221E+03
      4.467  0.1890E+02  0.4235E+03
      4.542  0.7490E+01  0.4241E+03
      4.616 -0.4549E+00  0.4240E+03
      4.691 -0.5131E+00  0.4240E+03
      4.765 -0.1050E+01  0.4239E+03
      4.840  0.7553E+00  0.4240E+03
      4.914  0.2023E+02  0.4255E+03
      4.989  0.2881E+02  0.4276E+03
      5.063  0.6789E+01  0.4281E+03
      5.137 -0.1844E+01  0.4280E+03
      5.212 -0.1067E+01  0.4279E+03
      5.286  0.8496E+01  0.4285E+03
      5.361  0.2471E+02  0.4304E+03
      5.435  0.2095E+02  0.4319E+03
      5.510  0.1582E+02  0.4331E+03
      5.584  0.1038E+02  0.4339E+03
      5.658  0.9119E+01  0.4346E+03
      5.733  0.2410E+02  0.4364E+03
      5.807  0.1902E+02  0.4378E+03
      5.882  0.3840E+01  0.4381E+03
      5.956 -0.1245E+01  0.4380E+03
      6.031  0.4833E+00  0.4380E+03
      6.105  0.1070E+02  0.4388E+03
      6.180  0.1387E+02  0.4398E+03
      6.254  0.2999E+01  0.4401E+03
      6.328 -0.6727E+00  0.4400E+03
      6.403 -0.1556E+00  0.4400E+03
      6.477 -0.6976E-02  0.4400E+03
      6.552 -0.9039E-04  0.4400E+03
      6.626 -0.3659E-06  0.4400E+03
      6.701 -0.4744E-09  0.4400E+03
      6.775 -0.1999E-12  0.4400E+03
      6.850  0.0000E+00  0.4400E+03
      6.924  0.0000E+00  0.4400E+03
      6.998  0.0000E+00  0.4400E+03
      7.073  0.0000E+00  0.4400E+03
      7.147  0.0000E+00  0.4400E+03
