   39   39    1    1
  0.3566249E+02  0.8358002E-09  0.8358002E-09  0.1991000E-08  0.5000000E-15
   1.0000000000000000E-004
  CAR 
 unknown system                          
    368      2    220

  0.2500000E+00  0.2500000E+00  0.1262379E-14  0.5000000E+00
      1        -14.169795   1.000000
      2         -6.462326   1.000000
      3         -5.246365   1.000000
      4         -5.101286   1.000000
      5         -4.174769   1.000000
      6         -4.149873   1.000000
      7         -3.935601   1.000000
      8         -3.790819   1.000000
      9         -3.706102   1.000000
     10         -3.691644   1.000000
     11         -3.689471   1.000000
     12         -3.672343   1.000000
     13         -3.666960   1.000000
     14         -3.622587   1.000000
     15         -3.573118   1.000000
     16         -3.542525   1.000000
     17         -3.514651   1.000000
     18         -3.501766   1.000000
     19         -3.494076   1.000000
     20         -3.436104   1.000000
     21         -3.386795   1.000000
     22         -3.281815   1.000000
     23         -3.279283   1.000000
     24         -3.273652   1.000000
     25         -3.254443   1.000000
     26         -3.142572   1.000000
     27         -3.138302   1.000000
     28         -3.125771   1.000000
     29         -3.096303   1.000000
     30         -3.084579   1.000000
     31         -3.071867   1.000000
     32         -3.059246   1.000000
     33         -2.973811   1.000000
     34         -2.961420   1.000000
     35         -2.953613   1.000000
     36         -2.888853   1.000000
     37         -2.825583   1.000000
     38         -2.804165   1.000000
     39         -2.798191   1.000000
     40         -2.788080   1.000000
     41         -2.782777   1.000000
     42         -2.767752   1.000000
     43         -2.758524   1.000000
     44         -2.752435   1.000000
     45         -2.726063   1.000000
     46         -2.611931   1.000000
     47         -2.528058   1.000000
     48         -2.517642   1.000000
     49         -2.491421   1.000000
     50         -2.464839   1.000000
     51         -2.441066   1.000000
     52         -2.380075   1.000000
     53         -2.364307   1.000000
     54         -2.343467   1.000000
     55         -2.332072   1.000000
     56         -2.307936   1.000000
     57         -2.299824   1.000000
     58         -2.273195   1.000000
     59         -2.196210   1.000000
     60         -2.181412   1.000000
     61         -2.126152   1.000000
     62         -2.115899   1.000000
     63         -2.015850   1.000000
     64         -2.007004   1.000000
     65         -1.976574   1.000000
     66         -1.968141   1.000000
     67         -1.953082   1.000000
     68         -1.919343   1.000000
     69         -1.913042   1.000000
     70         -1.845179   1.000000
     71         -1.823279   1.000000
     72         -1.817102   1.000000
     73         -1.753879   1.000000
     74         -1.744603   1.000000
     75         -1.710470   1.000000
     76         -1.636323   1.000000
     77         -1.622494   1.000000
     78         -1.612776   1.000000
     79         -1.570831   1.000000
     80         -1.559201   1.000000
     81         -1.540696   1.000000
     82         -1.531650   1.000000
     83         -1.522925   1.000000
     84         -1.513595   1.000000
     85         -1.502387   1.000000
     86         -1.479523   1.000000
     87         -1.458275   1.000000
     88         -1.439321   1.000000
     89         -1.431246   1.000000
     90         -1.420897   1.000000
     91         -1.326754   1.000000
     92         -1.303962   1.000000
     93         -1.300446   1.000000
     94         -1.282844   1.000000
     95         -1.278238   1.000000
     96         -1.255683   1.000000
     97         -1.248442   1.000000
     98         -1.228649   1.000000
     99         -1.173778   1.000000
    100         -1.148464   1.000000
    101         -1.136501   1.000000
    102         -1.107580   1.000000
    103         -1.079549   1.000000
    104         -1.053359   1.000000
    105         -0.992109   1.000000
    106         -0.970911   1.000000
    107         -0.963545   1.000000
    108         -0.914425   1.000000
    109         -0.912940   1.000000
    110         -0.842004   1.000000
    111         -0.781372   1.000000
    112         -0.761293   1.000000
    113         -0.740523   1.000000
    114         -0.715811   1.000000
    115         -0.709391   1.000000
    116         -0.701448   1.000000
    117         -0.662493   1.000000
    118         -0.653099   1.000000
    119         -0.640811   1.000000
    120         -0.638569   1.000000
    121         -0.630738   1.000000
    122         -0.616285   1.000000
    123         -0.598697   1.000000
    124         -0.591494   1.000000
    125         -0.541629   1.000000
    126         -0.529654   1.000000
    127         -0.500943   1.000000
    128         -0.490298   1.000000
    129         -0.458542   1.000000
    130         -0.450361   1.000000
    131         -0.353481   1.000000
    132         -0.341121   1.000000
    133         -0.317301   1.000000
    134         -0.298179   1.000000
    135         -0.289540   1.000000
    136         -0.276102   1.000000
    137         -0.267070   1.000000
    138         -0.235550   1.000000
    139         -0.219295   1.000000
    140         -0.184707   1.000000
    141         -0.115979   1.000000
    142         -0.094925   1.000000
    143         -0.074996   1.000000
    144         -0.052350   1.000000
    145         -0.044376   1.000000
    146         -0.012001   1.000000
    147         -0.001135   1.000000
    148          0.008055   1.000000
    149          0.019955   1.000000
    150          0.033238   1.000000
    151          0.101381   1.000000
    152          0.157118   1.000000
    153          0.196345   1.000000
    154          0.227245   1.000000
    155          0.249826   1.000000
    156          0.279693   1.000000
    157          0.293290   1.000000
    158          0.307490   1.000000
    159          0.328531   1.000000
    160          0.344615   1.000000
    161          0.358618   1.000000
    162          0.377275   1.000000
    163          0.392264   1.000000
    164          0.406978   1.000000
    165          0.411862   1.000000
    166          0.463907   1.000002
    167          0.508153   1.000037
    168          0.515476   1.000057
    169          0.544820   1.000285
    170          0.562421   1.000678
    171          0.578417   1.001404
    172          0.584507   1.001824
    173          0.591269   1.002414
    174          0.603035   1.003827
    175          0.613358   1.005575
    176          0.622510   1.007605
    177          0.646032   1.015206
    178          0.690425   1.033820
    179          0.724672   1.024467
    180          0.726880   1.021933
    181          0.765671   0.912599
    182          0.795046   0.734363
    183          0.809743   0.619693
    184          0.813088   0.592139
    185          0.832155   0.431638
    186          0.849773   0.290077
    187          0.864968   0.183763
    188          0.867766   0.166329
    189          0.928287  -0.028985
    190          1.006019  -0.013685
    191          1.116175  -0.000144
    192          1.139719  -0.000038
    193          1.613621  -0.000000
    194          1.685701  -0.000000
    195          1.694710  -0.000000
    196          1.847169  -0.000000
    197          1.875366  -0.000000
    198          1.967705  -0.000000
    199          2.167166  -0.000000
    200          2.295549  -0.000000
    201          2.312326  -0.000000
    202          2.730162  -0.000000
    203          3.206990   0.000000
    204          3.379410   0.000000
    205          3.485773   0.000000
    206          3.584497   0.000000
    207          3.656727   0.000000
    208          3.764429   0.000000
    209          3.964866   0.000000
    210          4.149635   0.000000
    211          4.347374   0.000000
    212          4.435379   0.000000
    213          4.921456   0.000000
    214          4.947059   0.000000
    215          5.300752   0.000000
    216          5.350307   0.000000
    217          5.507883   0.000000
    218          5.700237   0.000000
    219          5.780568   0.000000
    220          6.101975   0.000000

 -0.2500000E+00  0.2500000E+00  0.1262379E-14  0.5000000E+00
      1        -14.169799   1.000000
      2         -6.462518   1.000000
      3         -5.236906   1.000000
      4         -5.112340   1.000000
      5         -4.169375   1.000000
      6         -4.148432   1.000000
      7         -3.940377   1.000000
      8         -3.793652   1.000000
      9         -3.703090   1.000000
     10         -3.697136   1.000000
     11         -3.681639   1.000000
     12         -3.674889   1.000000
     13         -3.668185   1.000000
     14         -3.621972   1.000000
     15         -3.573127   1.000000
     16         -3.542019   1.000000
     17         -3.515484   1.000000
     18         -3.501526   1.000000
     19         -3.490368   1.000000
     20         -3.444690   1.000000
     21         -3.372018   1.000000
     22         -3.285969   1.000000
     23         -3.282186   1.000000
     24         -3.272361   1.000000
     25         -3.263028   1.000000
     26         -3.143156   1.000000
     27         -3.136336   1.000000
     28         -3.125387   1.000000
     29         -3.099430   1.000000
     30         -3.080551   1.000000
     31         -3.070871   1.000000
     32         -3.060109   1.000000
     33         -2.973310   1.000000
     34         -2.963474   1.000000
     35         -2.953954   1.000000
     36         -2.890228   1.000000
     37         -2.823361   1.000000
     38         -2.803355   1.000000
     39         -2.799997   1.000000
     40         -2.785084   1.000000
     41         -2.783361   1.000000
     42         -2.766572   1.000000
     43         -2.759357   1.000000
     44         -2.754747   1.000000
     45         -2.721874   1.000000
     46         -2.611611   1.000000
     47         -2.531368   1.000000
     48         -2.516065   1.000000
     49         -2.487359   1.000000
     50         -2.477682   1.000000
     51         -2.428729   1.000000
     52         -2.384035   1.000000
     53         -2.361276   1.000000
     54         -2.341834   1.000000
     55         -2.334055   1.000000
     56         -2.307147   1.000000
     57         -2.301235   1.000000
     58         -2.273134   1.000000
     59         -2.198777   1.000000
     60         -2.176791   1.000000
     61         -2.128379   1.000000
     62         -2.112265   1.000000
     63         -2.017244   1.000000
     64         -2.004860   1.000000
     65         -1.978034   1.000000
     66         -1.966884   1.000000
     67         -1.955015   1.000000
     68         -1.919766   1.000000
     69         -1.912447   1.000000
     70         -1.845563   1.000000
     71         -1.823684   1.000000
     72         -1.815463   1.000000
     73         -1.753392   1.000000
     74         -1.748680   1.000000
     75         -1.709153   1.000000
     76         -1.634338   1.000000
     77         -1.623804   1.000000
     78         -1.610112   1.000000
     79         -1.570853   1.000000
     80         -1.558556   1.000000
     81         -1.541107   1.000000
     82         -1.536065   1.000000
     83         -1.519344   1.000000
     84         -1.514791   1.000000
     85         -1.503546   1.000000
     86         -1.491032   1.000000
     87         -1.454814   1.000000
     88         -1.438843   1.000000
     89         -1.431032   1.000000
     90         -1.425189   1.000000
     91         -1.324954   1.000000
     92         -1.302519   1.000000
     93         -1.298806   1.000000
     94         -1.286631   1.000000
     95         -1.273067   1.000000
     96         -1.259479   1.000000
     97         -1.250616   1.000000
     98         -1.221524   1.000000
     99         -1.175092   1.000000
    100         -1.157072   1.000000
    101         -1.137413   1.000000
    102         -1.114934   1.000000
    103         -1.071363   1.000000
    104         -1.036317   1.000000
    105         -1.009717   1.000000
    106         -0.963669   1.000000
    107         -0.942973   1.000000
    108         -0.914516   1.000000
    109         -0.912751   1.000000
    110         -0.850740   1.000000
    111         -0.779634   1.000000
    112         -0.759881   1.000000
    113         -0.740481   1.000000
    114         -0.716477   1.000000
    115         -0.708107   1.000000
    116         -0.705257   1.000000
    117         -0.663247   1.000000
    118         -0.653546   1.000000
    119         -0.639860   1.000000
    120         -0.637526   1.000000
    121         -0.631174   1.000000
    122         -0.616772   1.000000
    123         -0.600573   1.000000
    124         -0.591869   1.000000
    125         -0.543004   1.000000
    126         -0.529389   1.000000
    127         -0.501532   1.000000
    128         -0.489562   1.000000
    129         -0.460161   1.000000
    130         -0.450754   1.000000
    131         -0.350785   1.000000
    132         -0.339133   1.000000
    133         -0.320855   1.000000
    134         -0.296789   1.000000
    135         -0.291442   1.000000
    136         -0.275624   1.000000
    137         -0.269967   1.000000
    138         -0.236362   1.000000
    139         -0.220606   1.000000
    140         -0.186507   1.000000
    141         -0.103771   1.000000
    142         -0.096533   1.000000
    143         -0.078592   1.000000
    144         -0.053429   1.000000
    145         -0.042326   1.000000
    146         -0.010654   1.000000
    147         -0.000828   1.000000
    148          0.007568   1.000000
    149          0.018282   1.000000
    150          0.029613   1.000000
    151          0.103465   1.000000
    152          0.157125   1.000000
    153          0.198009   1.000000
    154          0.225918   1.000000
    155          0.248740   1.000000
    156          0.280114   1.000000
    157          0.293023   1.000000
    158          0.306202   1.000000
    159          0.328853   1.000000
    160          0.342990   1.000000
    161          0.359001   1.000000
    162          0.377932   1.000000
    163          0.390271   1.000000
    164          0.405120   1.000000
    165          0.412530   1.000000
    166          0.462512   1.000002
    167          0.507838   1.000037
    168          0.517525   1.000065
    169          0.544395   1.000278
    170          0.563536   1.000715
    171          0.577829   1.001369
    172          0.585603   1.001910
    173          0.589442   1.002240
    174          0.604398   1.004028
    175          0.613488   1.005600
    176          0.623029   1.007735
    177          0.646383   1.015345
    178          0.691845   1.034185
    179          0.724567   1.024580
    180          0.727196   1.021544
    181          0.766591   0.908278
    182          0.796073   0.726782
    183          0.808443   0.630294
    184          0.814582   0.579711
    185          0.832178   0.431449
    186          0.850117   0.287478
    187          0.863912   0.190524
    188          0.868506   0.161838
    189          0.928173  -0.028896
    190          1.005730  -0.013793
    191          1.116136  -0.000144
    192          1.140697  -0.000036
    193          1.613598  -0.000000
    194          1.684999  -0.000000
    195          1.691609  -0.000000
    196          1.844543  -0.000000
    197          1.872551  -0.000000
    198          1.967554  -0.000000
    199          2.163424  -0.000000
    200          2.296159  -0.000000
    201          2.317801  -0.000000
    202          2.733370  -0.000000
    203          3.237864   0.000000
    204          3.372809   0.000000
    205          3.475503   0.000000
    206          3.569993   0.000000
    207          3.665614   0.000000
    208          3.771716   0.000000
    209          3.944319   0.000000
    210          4.154475   0.000000
    211          4.323354   0.000000
    212          4.444746   0.000000
    213          4.916633   0.000000
    214          4.935295   0.000000
    215          5.333996   0.000000
    216          5.396399   0.000000
    217          5.502418   0.000000
    218          5.680175   0.000000
    219          5.724515   0.000000
    220          6.132195   0.000000
