       N       E                     dE             d eps       ncg     rms          rms(c)
DAV:   1     0.211057325675E+04    0.21106E+04   -0.14721E+05   880   0.119E+03
DAV:   2    -0.611584650526E+02   -0.21717E+04   -0.20309E+04   984   0.282E+02
DAV:   3    -0.190494666082E+03   -0.12934E+03   -0.11505E+03  1024   0.610E+01
DAV:   4    -0.195601982690E+03   -0.51073E+01   -0.49428E+01  1040   0.119E+01
DAV:   5    -0.195776706149E+03   -0.17472E+00   -0.17457E+00  1096   0.230E+00    0.379E+01
RMM:   6    -0.188768158732E+03    0.70085E+01   -0.24428E+01   904   0.116E+01    0.224E+01
RMM:   7    -0.289014865155E+03   -0.10025E+03   -0.66268E+01  1137   0.118E+01    0.661E+01
RMM:   8    -0.203843417646E+03    0.85171E+02   -0.31440E+01   978   0.965E+00    0.332E+01
RMM:   9    -0.188599959789E+03    0.15243E+02   -0.13419E+01   945   0.755E+00    0.133E+01
RMM:  10    -0.188106869520E+03    0.49309E+00   -0.63237E+00   924   0.483E+00    0.120E+01
RMM:  11    -0.187622723597E+03    0.48415E+00   -0.26719E+00   928   0.328E+00    0.910E+00
RMM:  12    -0.187390999786E+03    0.23172E+00   -0.12737E+00   929   0.220E+00    0.736E+00
RMM:  13    -0.187034677002E+03    0.35632E+00   -0.51217E-01   925   0.156E+00    0.456E+00
RMM:  14    -0.186888538503E+03    0.14614E+00   -0.17368E-01   928   0.866E-01    0.227E+00
RMM:  15    -0.186861843421E+03    0.26695E-01   -0.74630E-02   937   0.539E-01    0.168E+00
RMM:  16    -0.186846506106E+03    0.15337E-01   -0.30734E-02   937   0.351E-01    0.115E+00
RMM:  17    -0.186845589744E+03    0.91636E-03   -0.14022E-02   940   0.228E-01    0.111E+00
RMM:  18    -0.186840066610E+03    0.55231E-02   -0.17087E-02   984   0.265E-01    0.785E-01
RMM:  19    -0.186836165838E+03    0.39008E-02   -0.81211E-03   946   0.183E-01    0.488E-01
RMM:  20    -0.186833895352E+03    0.22705E-02   -0.38999E-03   943   0.122E-01    0.246E-01
RMM:  21    -0.186833301285E+03    0.59407E-03   -0.16376E-03   946   0.786E-02    0.174E-01
RMM:  22    -0.186833054586E+03    0.24670E-03   -0.10816E-03   956   0.591E-02    0.181E-01
RMM:  23    -0.186832727828E+03    0.32676E-03   -0.77848E-04   899   0.525E-02    0.149E-01
RMM:  24    -0.186832596530E+03    0.13130E-03   -0.37858E-04   698   0.347E-02    0.954E-02
RMM:  25    -0.186832741936E+03   -0.14541E-03   -0.25958E-04   621   0.289E-02    0.105E-01
RMM:  26    -0.186832802234E+03   -0.60298E-04   -0.14124E-04   540   0.222E-02
   1 F= -.18683280E+03 E0= -.18680088E+03  d E =-.957743E-01
