<?xml version="1.0" encoding="ISO-8859-1"?>
<modeling>
 <generator>
  <i name="program" type="string">vasp </i>
  <i name="version" type="string">6.4.3  </i>
  <i name="subversion" type="string">19Mar24 (build Oct  2 2024 09:01:45) complex                          parallel </i>
  <i name="platform" type="string">LinuxGNU </i>
  <i name="date" type="string">2025 02 24 </i>
  <i name="time" type="string">13:03:13 </i>
 </generator>
 <incar>
  <i type="string" name="PREC">Accurate</i>
  <i type="string" name="ALGO">Fast</i>
  <i type="int" name="ICHARG">     2</i>
  <i type="int" name="IBRION">    -1</i>
  <i name="EDIFF">      0.00010000</i>
  <i name="EDIFFG">     -0.03000000</i>
  <i type="int" name="ISYM">     0</i>
  <i name="ENCUT">    400.00000000</i>
  <i type="string" name="LREAL">Auto</i>
  <i type="int" name="ISMEAR">     1</i>
  <i name="SIGMA">      0.10000000</i>
  <i type="logical" name="LWAVE"> F  </i>
  <i type="logical" name="LCHARG"> F  </i>
  <i type="string" name="GGA">PE</i>
  <i type="logical" name="LDIPOL"> T  </i>
  <i type="int" name="IDIPOL">     3</i>
 </incar>
 <primitive_cell>
  <structure name="primitive_cell" >
   <crystal>
    <varray name="basis" >
     <v>       8.35800215       0.00000000       0.00000000 </v>
     <v>       0.00000000       8.35800215       0.00000000 </v>
     <v>       0.00000000       0.00000000      19.91000000 </v>
    </varray>
    <i name="volume">   1390.83694200 </i>
    <varray name="rec_basis" >
     <v>       0.11964582       0.00000000       0.00000000 </v>
     <v>       0.00000000       0.11964582       0.00000000 </v>
     <v>       0.00000000       0.00000000       0.05022602 </v>
    </varray>
   </crystal>
   <varray name="positions" >
    <v>       0.16666667       0.16666667       0.00000000 </v>
    <v>       0.50000000       0.16666667       0.00000000 </v>
    <v>       0.83333333       0.16666667       0.00000000 </v>
    <v>       0.16666667       0.50000000       0.00000000 </v>
    <v>       0.50000000       0.50000000       0.00000000 </v>
    <v>       0.83333333       0.50000000       0.00000000 </v>
    <v>       0.16666667       0.83333333       0.00000000 </v>
    <v>       0.50000000       0.83333333       0.00000000 </v>
    <v>       0.83333333       0.83333333       0.00000000 </v>
    <v>       0.00000000       0.00000000       0.09894525 </v>
    <v>       0.33333333       0.00000000       0.09894525 </v>
    <v>       0.66666667       0.00000000       0.09894525 </v>
    <v>       0.00000000       0.33333333       0.09894525 </v>
    <v>       0.33333333       0.33333333       0.09894525 </v>
    <v>       0.66666667       0.33333333       0.09894525 </v>
    <v>       0.00000000       0.66666667       0.09894525 </v>
    <v>       0.33333333       0.66666667       0.09894525 </v>
    <v>       0.66666667       0.66666667       0.09894525 </v>
    <v>       0.16885356       0.16825249       0.19780759 </v>
    <v>       0.49914573       0.16679704       0.19800038 </v>
    <v>       0.83361515       0.16591477       0.19692077 </v>
    <v>       0.16788701       0.49738723       0.19775487 </v>
    <v>       0.49902159       0.49806052       0.19806700 </v>
    <v>       0.83414663       0.50045616       0.19671555 </v>
    <v>       0.16702863       0.83309610       0.19693012 </v>
    <v>       0.50170721       0.83310582       0.19652823 </v>
    <v>       0.83472877       0.83282307       0.19654411 </v>
    <v>       0.00151419       0.99925417       0.29563843 </v>
    <v>       0.33453680       0.99692233       0.29469741 </v>
    <v>       0.67062651       0.99851594       0.29571944 </v>
    <v>       0.99769684       0.33293738       0.29486402 </v>
    <v>       0.32582819       0.33142917       0.30203328 </v>
    <v>       0.66715683       0.33329135       0.29599315 </v>
    <v>       0.00081212       0.66768561       0.29576333 </v>
    <v>       0.33550094       0.66626656       0.29439216 </v>
    <v>       0.67015181       0.66714050       0.29545987 </v>
    <v>       0.57377025       0.33427998       0.39125346 </v>
    <v>       0.41721719       0.49405205       0.42408549 </v>
    <v>       0.41133435       0.33422268       0.41186103 </v>
   </varray>
  </structure>
  <varray name="primitive_index" >
   <v type="int" >        1 </v>
   <v type="int" >        2 </v>
   <v type="int" >        3 </v>
   <v type="int" >        4 </v>
   <v type="int" >        5 </v>
   <v type="int" >        6 </v>
   <v type="int" >        7 </v>
   <v type="int" >        8 </v>
   <v type="int" >        9 </v>
   <v type="int" >       10 </v>
   <v type="int" >       11 </v>
   <v type="int" >       12 </v>
   <v type="int" >       13 </v>
   <v type="int" >       14 </v>
   <v type="int" >       15 </v>
   <v type="int" >       16 </v>
   <v type="int" >       17 </v>
   <v type="int" >       18 </v>
   <v type="int" >       19 </v>
   <v type="int" >       20 </v>
   <v type="int" >       21 </v>
   <v type="int" >       22 </v>
   <v type="int" >       23 </v>
   <v type="int" >       24 </v>
   <v type="int" >       25 </v>
   <v type="int" >       26 </v>
   <v type="int" >       27 </v>
   <v type="int" >       28 </v>
   <v type="int" >       29 </v>
   <v type="int" >       30 </v>
   <v type="int" >       31 </v>
   <v type="int" >       32 </v>
   <v type="int" >       33 </v>
   <v type="int" >       34 </v>
   <v type="int" >       35 </v>
   <v type="int" >       36 </v>
   <v type="int" >       37 </v>
   <v type="int" >       38 </v>
   <v type="int" >       39 </v>
  </varray>
 </primitive_cell>
 <kpoints>
  <generation param="Monkhorst-Pack">
   <v type="int" name="divisions">       2        2        1 </v>
   <v name="usershift">      0.00000000       0.00000000       0.00000000 </v>
   <v name="genvec1">      0.50000000       0.00000000       0.00000000 </v>
   <v name="genvec2">      0.00000000       0.50000000       0.00000000 </v>
   <v name="genvec3">      0.00000000       0.00000000       1.00000000 </v>
   <v name="shift">      0.50000000       0.50000000       0.00000000 </v>
  </generation>
  <varray name="kpointlist" >
   <v>       0.25000000       0.25000000       0.00000000 </v>
   <v>      -0.25000000       0.25000000       0.00000000 </v>
  </varray>
  <varray name="weights" >
   <v>       0.50000000 </v>
   <v>       0.50000000 </v>
  </varray>
 </kpoints>
 <parameters>
  <separator name="general" >
   <i type="string" name="SYSTEM">unknown system</i>
   <i type="logical" name="LCOMPAT"> F  </i>
  </separator>
  <separator name="electronic" >
   <i type="string" name="PREC">accura</i>
   <i name="ENMAX">    400.00000000</i>
   <i name="ENAUG">    416.23000000</i>
   <i name="EDIFF">      0.00010000</i>
   <i type="int" name="IALGO">    68</i>
   <i type="int" name="IWAVPR">    10</i>
   <i type="int" name="NBANDS">   220</i>
   <i type="int" name="NBANDSLOW">    -1</i>
   <i type="int" name="NBANDSHIGH">    -1</i>
   <i name="NELECT">    368.00000000</i>
   <i type="int" name="TURBO">     0</i>
   <i type="int" name="IRESTART">     0</i>
   <i type="int" name="NREBOOT">     0</i>
   <i type="int" name="NMIN">     0</i>
   <i name="EREF">      0.00000000</i>
   <separator name="electronic smearing" >
    <i type="int" name="ISMEAR">     1</i>
    <i name="SIGMA">      0.10000000</i>
    <i name="KSPACING">      0.50000000</i>
    <i type="logical" name="KGAMMA"> T  </i>
    <i type="logical" name="KBLOWUP"> T  </i>
   </separator>
   <separator name="electronic projectors" >
    <i type="logical" name="LREAL"> T  </i>
    <v name="ROPT">     -0.00025000     -0.00025000     -0.00025000</v>
    <i type="int" name="LMAXPAW">  -100</i>
    <i type="int" name="LMAXMIX">     2</i>
    <i type="logical" name="NLSPLINE"> F  </i>
   </separator>
   <separator name="electronic startup" >
    <i type="int" name="ISTART">     0</i>
    <i type="int" name="ICHARG">     2</i>
    <i type="int" name="INIWAV">     1</i>
   </separator>
   <separator name="electronic spin" >
    <i type="int" name="ISPIN">     1</i>
    <i type="logical" name="LNONCOLLINEAR"> F  </i>
    <v name="MAGMOM">      1.00000000      1.00000000      1.00000000      1.00000000      1.00000000      1.00000000      1.00000000      1.00000000      1.00000000      1.00000000      1.00000000      1.00000000      1.00000000      1.00000000      1.00000000      1.00000000      1.00000000      1.00000000      1.00000000      1.00000000
      1.00000000      1.00000000      1.00000000      1.00000000      1.00000000      1.00000000      1.00000000      1.00000000      1.00000000      1.00000000      1.00000000      1.00000000      1.00000000      1.00000000      1.00000000      1.00000000      1.00000000      1.00000000      1.00000000</v>
    <i name="NUPDOWN">     -1.00000000</i>
    <i type="logical" name="LSORBIT"> F  </i>
    <v name="SAXIS">      0.00000000      0.00000000      1.00000000</v>
    <i type="logical" name="LSPIRAL"> F  </i>
    <v name="QSPIRAL">      0.00000000      0.00000000      0.00000000</v>
    <i type="logical" name="LZEROZ"> F  </i>
   </separator>
   <separator name="electronic exchange-correlation" >
    <i type="logical" name="LASPH"> F  </i>
   </separator>
   <separator name="electronic convergence" >
    <i type="int" name="NELM">    60</i>
    <i type="int" name="NELMDL">     0</i>
    <i type="int" name="NELMIN">     2</i>
    <i name="ENINI">    400.00000000</i>
    <separator name="electronic convergence detail" >
     <i type="logical" name="LDIAG"> T  </i>
     <i type="logical" name="LSUBROT"> F  </i>
     <i name="WEIMIN">      0.00000000</i>
     <i name="EBREAK">      0.00000011</i>
     <i name="DEPER">      0.30000000</i>
     <i type="int" name="NRMM">     4</i>
     <i name="TIME">      0.40000000</i>
    </separator>
   </separator>
   <separator name="electronic mixer" >
    <i name="AMIX">      0.40000000</i>
    <i name="BMIX">      1.00000000</i>
    <i name="AMIN">      0.10000000</i>
    <i name="AMIX_MAG">      1.60000000</i>
    <i name="BMIX_MAG">      1.00000000</i>
    <separator name="electronic mixer details" >
     <i type="int" name="IMIX">     4</i>
     <i type="logical" name="MIXFIRST"> F  </i>
     <i type="int" name="MAXMIX">   -45</i>
     <i name="WC">    100.00000000</i>
     <i type="int" name="INIMIX">     1</i>
     <i type="int" name="MIXPRE">     1</i>
     <i type="int" name="MREMOVE">     5</i>
    </separator>
   </separator>
   <separator name="electronic dipolcorrection" >
    <i type="logical" name="LDIPOL"> T  </i>
    <i type="logical" name="LMONO"> F  </i>
    <i type="int" name="IDIPOL">     3</i>
    <i name="EPSILON">      1.00000000</i>
    <v name="DIPOL">   -100.00000000   -100.00000000   -100.00000000</v>
    <i name="EFIELD">      0.00000000</i>
    <i type="logical" name="LVACPOTAV"> F  </i>
   </separator>
  </separator>
  <separator name="grids" >
   <i type="int" name="NGX">    56</i>
   <i type="int" name="NGY">    56</i>
   <i type="int" name="NGZ">   140</i>
   <i type="int" name="NGXF">   112</i>
   <i type="int" name="NGYF">   112</i>
   <i type="int" name="NGZF">   280</i>
   <i type="logical" name="ADDGRID"> F  </i>
  </separator>
  <separator name="ionic" >
   <i type="int" name="NSW">     0</i>
   <i type="int" name="IBRION">    -1</i>
   <i type="int" name="MDALGO">     0</i>
   <i type="int" name="ISIF">     2</i>
   <i name="PSTRESS">      0.00000000</i>
   <i name="EDIFFG">     -0.03000000</i>
   <i type="int" name="NFREE">     0</i>
   <i name="POTIM">      0.50000000</i>
   <i name="SMASS">     -3.00000000</i>
   <i name="SCALEE">      1.00000000</i>
  </separator>
  <separator name="ionic md" >
   <i name="TEBEG">      0.00010000</i>
   <i name="TEEND">      0.00010000</i>
   <i type="int" name="NBLOCK">     1</i>
   <i type="int" name="KBLOCK">     1</i>
   <i type="int" name="NPACO">   256</i>
   <i name="APACO">     10.00000000</i>
  </separator>
  <separator name="symmetry" >
   <i type="int" name="ISYM">     0</i>
   <i name="SYMPREC">      0.00001000</i>
  </separator>
  <separator name="dos" >
   <i type="int" name="LORBIT">     0</i>
   <v name="RWIGS">     -1.00000000     -1.00000000     -1.00000000</v>
   <i type="int" name="NEDOS">   301</i>
   <i name="EMIN">     10.00000000</i>
   <i name="EMAX">    -10.00000000</i>
   <i name="EFERMI">      0.00000000</i>
  </separator>
  <separator name="writing" >
   <i type="int" name="NWRITE">     2</i>
   <i type="logical" name="LWAVE"> F  </i>
   <i type="logical" name="LDOWNSAMPLE"> F  </i>
   <i type="logical" name="LCHARG"> F  </i>
   <i type="logical" name="LPARD"> F  </i>
   <i type="logical" name="LVTOT"> F  </i>
   <i type="logical" name="LVHAR"> F  </i>
   <i type="logical" name="LELF"> F  </i>
   <i type="logical" name="LOPTICS"> F  </i>
   <v name="STM">      0.00000000      0.00000000      0.00000000      0.00000000      0.00000000      0.00000000      0.00000000</v>
  </separator>
  <separator name="performance" >
   <i type="int" name="NPAR">     2</i>
   <i type="int" name="NSIM">     4</i>
   <i type="int" name="NBLK">    -1</i>
   <i type="logical" name="LPLANE"> T  </i>
   <i type="logical" name="LSCALAPACK"> T  </i>
   <i type="logical" name="LSCAAWARE"> F  </i>
   <i type="logical" name="LSCALU"> F  </i>
   <i type="logical" name="LASYNC"> F  </i>
   <i type="logical" name="LORBITALREAL"> F  </i>
  </separator>
  <separator name="miscellaneous" >
   <i type="int" name="IDIOT">     3</i>
   <i type="int" name="PHON_NSTRUCT">    -1</i>
   <i type="logical" name="LMUSIC"> F  </i>
   <v name="POMASS">    106.42000000      1.00000000     32.06600000</v>
   <v name="DARWINR">      0.00000000      0.00000000      0.00000000</v>
   <v name="DARWINV">      1.00000000      1.00000000      1.00000000</v>
   <i type="logical" name="LCORR"> T  </i>
  </separator>
  <i type="logical" name="GGA_COMPAT"> T  </i>
  <i type="logical" name="LBERRY"> F  </i>
  <i type="int" name="ICORELEVEL">     0</i>
  <i type="logical" name="LDAU"> F  </i>
  <i type="int" name="I_CONSTRAINED_M">     0</i>
  <separator name="electronic exchange-correlation" >
   <i type="string" name="GGA    ">PE</i>
   <i type="string" name="XC_C">1</i>
   <i type="int" name="VOSKOWN">     0</i>
   <i type="logical" name="LHFCALC"> F  </i>
   <i type="string" name="PRECFOCK"></i>
   <i type="logical" name="LSYMGRAD"> F  </i>
   <i type="logical" name="LHFONE"> F  </i>
   <i type="logical" name="LRHFCALC"> F  </i>
   <i type="logical" name="LTHOMAS"> F  </i>
   <i type="logical" name="LMODELHF"> F  </i>
   <i type="logical" name="LFOCKACE"> F  </i>
   <i name="ENCUT4O">     -1.00000000</i>
   <i type="int" name="EXXOEP">     0</i>
   <i type="int" name="FOURORBIT">     0</i>
   <i name="AEXX">      0.00000000</i>
   <i name="HFALPHA">      0.00000000</i>
   <i name="MCALPHA">      0.00000000</i>
   <i name="ALDAX">      1.00000000</i>
   <i name="AGGAX">      1.00000000</i>
   <i name="AMGGAX">      1.00000000</i>
   <i name="ALDAC">      1.00000000</i>
   <i name="AGGAC">      1.00000000</i>
   <i name="AMGGAC">      1.00000000</i>
   <i type="int" name="NKREDX">     1</i>
   <i type="int" name="NKREDY">     1</i>
   <i type="int" name="NKREDZ">     1</i>
   <i type="logical" name="SHIFTRED"> F  </i>
   <i type="logical" name="ODDONLY"> F  </i>
   <i type="logical" name="EVENONLY"> F  </i>
   <i type="int" name="LMAXFOCK">     0</i>
   <i type="int" name="NMAXFOCKAE">     0</i>
   <i type="logical" name="LFOCKAEDFT"> F  </i>
   <i name="HFSCREEN">      0.00000000</i>
   <i name="HFSCREENC">      0.00000000</i>
   <i type="int" name="NBANDSGWLOW">     0</i>
  </separator>
  <separator name="vdW DFT" >
   <i type="logical" name="LUSE_VDW"> F  </i>
   <i type="int" name="IVDW_NL">    -1</i>
   <i type="logical" name="LSPIN_VDW"> F  </i>
   <i name="ZAB_VDW">     -0.84910000</i>
   <i name="GAMMA_VDW">      1.39626340</i>
   <i name="ALPHA_VDW">      0.00000000</i>
   <i name="PARAM1">      0.12340000</i>
   <i name="PARAM2">      1.00000000</i>
   <i name="BPARAM">      6.30000000</i>
   <i name="CPARAM">      0.00930000</i>
  </separator>
  <separator name="model GW" >
   <i type="int" name="MODEL_GW">     0</i>
   <i name="MODEL_EPS0">     21.39749142</i>
   <i name="MODEL_ALPHA">      1.00000000</i>
  </separator>
  <separator name="linear response parameters" >
   <i type="logical" name="LEPSILON"> F  </i>
   <i type="logical" name="LRPA"> F  </i>
   <i type="logical" name="LNABLA"> F  </i>
   <i type="logical" name="LVEL"> F  </i>
   <i name="CSHIFT">      0.10000000</i>
   <i name="OMEGAMAX">     -1.00000000</i>
   <i name="DEG_THRESHOLD">      0.00200000</i>
   <i name="RTIME">     -0.10000000</i>
   <i name="WPLASMAI">      0.00000000</i>
   <v name="DFIELD">      0.00000000      0.00000000      0.00000000</v>
   <v name="WPLASMA">      0.00000000      0.00000000      0.00000000      0.00000000      0.00000000      0.00000000      0.00000000      0.00000000      0.00000000</v>
  </separator>
  <separator name="orbital magnetization" >
   <i type="logical" name="NUCIND"> F  </i>
   <v name="MAGPOS">      0.00000000      0.00000000      0.00000000</v>
   <i type="logical" name="LNICSALL"> T  </i>
   <i type="logical" name="ORBITALMAG"> F  </i>
   <i type="logical" name="LMAGBLOCH"> F  </i>
   <i type="logical" name="LCHIMAG"> F  </i>
   <i type="logical" name="LGAUGE"> T  </i>
   <i type="int" name="MAGATOM">     0</i>
   <v name="MAGDIPOL">      0.00000000      0.00000000      0.00000000</v>
   <v name="AVECCONST">      0.00000000      0.00000000      0.00000000</v>
  </separator>
  <separator name="response functions" >
   <i type="logical" name="LALL_IN_ONE"> F  </i>
   <i type="int" name="IALL_IN_ONE">    -1</i>
   <i type="int" name="NBANDS_WAVE">    -1</i>
   <i type="logical" name="LFINITE_TEMPERATURE"> F  </i>
   <i type="logical" name="LADDER"> F  </i>
   <i type="logical" name="LRPAFORCE"> F  </i>
   <i type="logical" name="LFXC"> F  </i>
   <i type="logical" name="LHARTREE"> T  </i>
   <i type="int" name="IBSE">     0</i>
   <v type="int" name="KPOINT">    -1     0     0     0</v>
   <i type="logical" name="LTCTC"> F  </i>
   <i type="logical" name="LTCTE"> F  </i>
   <i type="logical" name="LTETE"> F  </i>
   <i type="logical" name="LTRIPLET"> F  </i>
   <i type="logical" name="LFXCEPS"> F  </i>
   <i type="logical" name="LFXHEG"> F  </i>
   <i type="int" name="NATURALO">     2</i>
   <i type="logical" name="LHOLEGF"> F  </i>
   <i type="logical" name="L2ORDER"> F  </i>
   <i type="logical" name="LDMP1"> F  </i>
   <i type="logical" name="LMP2LT"> F  </i>
   <i type="logical" name="LSMP2LT"> F  </i>
   <i type="logical" name="LGWLF"> F  </i>
   <i name="ENCUTGW">     -1.60000002</i>
   <i name="ENCUTGWSOFT">     -1.60000002</i>
   <i name="ENCUTLF">     -1.00000000</i>
   <i type="logical" name="ESF_SPLINES"> F  </i>
   <i name="ESF_CONV">      0.01000000</i>
   <i type="int" name="ESF_NINTER">    15</i>
   <i type="int" name="LMAXMP2">    -1</i>
   <i name="SCISSOR">      0.00000000</i>
   <i type="int" name="NOMEGA">     0</i>
   <i type="int" name="NOMEGAR">     0</i>
   <i type="int" name="NBANDSGW">    -1</i>
   <i type="int" name="NBANDSO">    -1</i>
   <i type="int" name="NBANDSV">    -1</i>
   <i type="int" name="NELMGW">     1</i>
   <i type="int" name="NELMHF">     1</i>
   <i type="int" name="DIM">     3</i>
   <i type="int" name="IESPILON">     4</i>
   <i type="int" name="ANTIRES">     0</i>
   <i name="OMEGAMAX">    -30.00000000</i>
   <i name="OMEGAMIN">    -30.00000000</i>
   <i name="OMEGATL">   -200.00000000</i>
   <i type="int" name="OMEGAGRID">     0</i>
   <i name="CSHIFT">     -0.10000000</i>
   <i type="logical" name="LSELFENERGY"> F  </i>
   <i type="logical" name="LSPECTRAL"> F  </i>
   <i type="logical" name="LSPECTRALGW"> F  </i>
   <i type="logical" name="LSINGLES"> F  </i>
   <i type="logical" name="LFERMIGW"> F  </i>
   <i type="logical" name="ODDONLYGW"> F  </i>
   <i type="logical" name="EVENONLYGW"> F  </i>
   <i type="int" name="NKREDLFX">     1</i>
   <i type="int" name="NKREDLFY">     1</i>
   <i type="int" name="NKREDLFZ">     1</i>
   <i type="int" name="MAXMEM">  2800</i>
   <i type="int" name="TELESCOPE">     0</i>
   <i type="int" name="NTAUPAR">    -1</i>
   <i type="int" name="NOMEGAPAR">    -1</i>
   <i name="DAMP_NEWTON">      0.80000001</i>
   <i name="LAMBDA">      1.00000000</i>
  </separator>
  <separator name="External order field" >
   <i name="OFIELD_KAPPA">      0.00000000</i>
   <v name="OFIELD_K">      0.00000000      0.00000000      0.00000000</v>
   <i name="OFIELD_Q6_NEAR">      0.00000000</i>
   <i name="OFIELD_Q6_FAR">      0.00000000</i>
   <i name="OFIELD_A">      0.00000000</i>
  </separator>
  <separator name="optional k-points parameters" >
   <i type="int" name="KPOINTS_OPT_MODE">     1</i>
   <i type="logical" name="LKPOINTS_OPT"> F  </i>
  </separator>
 </parameters>
 <atominfo>
  <atoms>      39 </atoms>
  <types>       3 </types>
  <array name="atoms" >
   <dimension dim="1">ion</dimension>
   <field type="string">element</field>
   <field type="int">atomtype</field>
   <set>
    <rc><c>Pd</c><c>   1</c></rc>
    <rc><c>Pd</c><c>   1</c></rc>
    <rc><c>Pd</c><c>   1</c></rc>
    <rc><c>Pd</c><c>   1</c></rc>
    <rc><c>Pd</c><c>   1</c></rc>
    <rc><c>Pd</c><c>   1</c></rc>
    <rc><c>Pd</c><c>   1</c></rc>
    <rc><c>Pd</c><c>   1</c></rc>
    <rc><c>Pd</c><c>   1</c></rc>
    <rc><c>Pd</c><c>   1</c></rc>
    <rc><c>Pd</c><c>   1</c></rc>
    <rc><c>Pd</c><c>   1</c></rc>
    <rc><c>Pd</c><c>   1</c></rc>
    <rc><c>Pd</c><c>   1</c></rc>
    <rc><c>Pd</c><c>   1</c></rc>
    <rc><c>Pd</c><c>   1</c></rc>
    <rc><c>Pd</c><c>   1</c></rc>
    <rc><c>Pd</c><c>   1</c></rc>
    <rc><c>Pd</c><c>   1</c></rc>
    <rc><c>Pd</c><c>   1</c></rc>
    <rc><c>Pd</c><c>   1</c></rc>
    <rc><c>Pd</c><c>   1</c></rc>
    <rc><c>Pd</c><c>   1</c></rc>
    <rc><c>Pd</c><c>   1</c></rc>
    <rc><c>Pd</c><c>   1</c></rc>
    <rc><c>Pd</c><c>   1</c></rc>
    <rc><c>Pd</c><c>   1</c></rc>
    <rc><c>Pd</c><c>   1</c></rc>
    <rc><c>Pd</c><c>   1</c></rc>
    <rc><c>Pd</c><c>   1</c></rc>
    <rc><c>Pd</c><c>   1</c></rc>
    <rc><c>Pd</c><c>   1</c></rc>
    <rc><c>Pd</c><c>   1</c></rc>
    <rc><c>Pd</c><c>   1</c></rc>
    <rc><c>Pd</c><c>   1</c></rc>
    <rc><c>Pd</c><c>   1</c></rc>
    <rc><c>H </c><c>   2</c></rc>
    <rc><c>H </c><c>   2</c></rc>
    <rc><c>S </c><c>   3</c></rc>
   </set>
  </array>
  <array name="atomtypes" >
   <dimension dim="1">type</dimension>
   <field type="int">atomspertype</field>
   <field type="string">element</field>
   <field>mass</field>
   <field>valence</field>
   <field type="string">pseudopotential</field>
   <set>
    <rc><c>  36</c><c>Pd</c><c>    106.42000000</c><c>     10.00000000</c><c>  PAW_PBE Pd 04Jan2005                  </c></rc>
    <rc><c>   2</c><c>H </c><c>      1.00000000</c><c>      1.00000000</c><c>  PAW_PBE H 15Jun2001                   </c></rc>
    <rc><c>   1</c><c>S </c><c>     32.06600000</c><c>      6.00000000</c><c>  PAW_PBE S 06Sep2000                   </c></rc>
   </set>
  </array>
 </atominfo>
 <structure name="initialpos" >
  <crystal>
   <varray name="basis" >
    <v>       8.35800215       0.00000000       0.00000000 </v>
    <v>       0.00000000       8.35800215       0.00000000 </v>
    <v>       0.00000000       0.00000000      19.91000000 </v>
   </varray>
   <i name="volume">   1390.83694200 </i>
   <varray name="rec_basis" >
    <v>       0.11964582       0.00000000       0.00000000 </v>
    <v>       0.00000000       0.11964582       0.00000000 </v>
    <v>       0.00000000       0.00000000       0.05022602 </v>
   </varray>
  </crystal>
  <varray name="positions" >
   <v>       0.16666667       0.16666667       0.00000000 </v>
   <v>       0.50000000       0.16666667       0.00000000 </v>
   <v>       0.83333333       0.16666667       0.00000000 </v>
   <v>       0.16666667       0.50000000       0.00000000 </v>
   <v>       0.50000000       0.50000000       0.00000000 </v>
   <v>       0.83333333       0.50000000       0.00000000 </v>
   <v>       0.16666667       0.83333333       0.00000000 </v>
   <v>       0.50000000       0.83333333       0.00000000 </v>
   <v>       0.83333333       0.83333333       0.00000000 </v>
   <v>       0.00000000       0.00000000       0.09894525 </v>
   <v>       0.33333333       0.00000000       0.09894525 </v>
   <v>       0.66666667       0.00000000       0.09894525 </v>
   <v>       0.00000000       0.33333333       0.09894525 </v>
   <v>       0.33333333       0.33333333       0.09894525 </v>
   <v>       0.66666667       0.33333333       0.09894525 </v>
   <v>       0.00000000       0.66666667       0.09894525 </v>
   <v>       0.33333333       0.66666667       0.09894525 </v>
   <v>       0.66666667       0.66666667       0.09894525 </v>
   <v>       0.16885356       0.16825249       0.19780759 </v>
   <v>       0.49914573       0.16679704       0.19800038 </v>
   <v>       0.83361515       0.16591477       0.19692077 </v>
   <v>       0.16788701       0.49738723       0.19775487 </v>
   <v>       0.49902159       0.49806052       0.19806700 </v>
   <v>       0.83414663       0.50045616       0.19671555 </v>
   <v>       0.16702863       0.83309610       0.19693012 </v>
   <v>       0.50170721       0.83310582       0.19652823 </v>
   <v>       0.83472877       0.83282307       0.19654411 </v>
   <v>       0.00151419       0.99925417       0.29563843 </v>
   <v>       0.33453680       0.99692233       0.29469741 </v>
   <v>       0.67062651       0.99851594       0.29571944 </v>
   <v>       0.99769684       0.33293738       0.29486402 </v>
   <v>       0.32582819       0.33142917       0.30203328 </v>
   <v>       0.66715683       0.33329135       0.29599315 </v>
   <v>       0.00081212       0.66768561       0.29576333 </v>
   <v>       0.33550094       0.66626656       0.29439216 </v>
   <v>       0.67015181       0.66714050       0.29545987 </v>
   <v>       0.57377025       0.33427998       0.39125346 </v>
   <v>       0.41721719       0.49405205       0.42408549 </v>
   <v>       0.41133435       0.33422268       0.41186103 </v>
  </varray>
  <varray name="selective"  type="logical" >
   <v type="logical" >  F  F  F </v>
   <v type="logical" >  F  F  F </v>
   <v type="logical" >  F  F  F </v>
   <v type="logical" >  F  F  F </v>
   <v type="logical" >  F  F  F </v>
   <v type="logical" >  F  F  F </v>
   <v type="logical" >  F  F  F </v>
   <v type="logical" >  F  F  F </v>
   <v type="logical" >  F  F  F </v>
   <v type="logical" >  F  F  F </v>
   <v type="logical" >  F  F  F </v>
   <v type="logical" >  F  F  F </v>
   <v type="logical" >  F  F  F </v>
   <v type="logical" >  F  F  F </v>
   <v type="logical" >  F  F  F </v>
   <v type="logical" >  F  F  F </v>
   <v type="logical" >  F  F  F </v>
   <v type="logical" >  F  F  F </v>
   <v type="logical" >  T  T  T </v>
   <v type="logical" >  T  T  T </v>
   <v type="logical" >  T  T  T </v>
   <v type="logical" >  T  T  T </v>
   <v type="logical" >  T  T  T </v>
   <v type="logical" >  T  T  T </v>
   <v type="logical" >  T  T  T </v>
   <v type="logical" >  T  T  T </v>
   <v type="logical" >  T  T  T </v>
   <v type="logical" >  T  T  T </v>
   <v type="logical" >  T  T  T </v>
   <v type="logical" >  T  T  T </v>
   <v type="logical" >  T  T  T </v>
   <v type="logical" >  T  T  T </v>
   <v type="logical" >  T  T  T </v>
   <v type="logical" >  T  T  T </v>
   <v type="logical" >  T  T  T </v>
   <v type="logical" >  T  T  T </v>
   <v type="logical" >  T  T  T </v>
   <v type="logical" >  T  T  T </v>
   <v type="logical" >  T  T  T </v>
  </varray>
  <nose>
   <v>      -3.00000000       0.00000000       0.00010000       0.00010000 </v>
  </nose>
 </structure>
 <calculation>
  <scstep>
   <time name="dav">    0.96    0.97</time>
   <time name="total">    1.01    1.02</time>
   <dipole>
    <v name="dipole">      0.00000000       0.00000000      -0.00003924 </v>
    <i name="Tr[quadrupol]">  -4530.19073463 </i>
    <i name="Echarged">      0.00000000 </i>
    <i name="Edipol_quadrupol">      0.00000000 </i>
    <i name="Eion">      0.00000000 </i>
   </dipole>
   <energy>
    <i name="alphaZ">    628.75238948 </i>
    <i name="ewald">  75199.42597465 </i>
    <i name="hartreedc">-105934.23965130 </i>
    <i name="XCdc">  -1046.68804658 </i>
    <i name="pawpsdc">  29264.33151030 </i>
    <i name="pawaedc"> -27021.15649540 </i>
    <i name="eentropy">      0.01756941 </i>
    <i name="bandstr">   1567.57420524 </i>
    <i name="atom">  29452.55580095 </i>
    <i name="e_fr_energy">   2110.57325675 </i>
    <i name="e_wo_entrp">   2110.55568734 </i>
    <i name="e_0_energy">   2110.56740028 </i>
   </energy>
  </scstep>
  <scstep>
   <time name="dav">    0.97    0.97</time>
   <time name="total">    0.97    0.98</time>
   <dipole>
    <v name="dipole">      0.00000000       0.00000000      -0.00003924 </v>
    <i name="Tr[quadrupol]">  -4530.19073463 </i>
    <i name="Echarged">      0.00000000 </i>
    <i name="Edipol_quadrupol">      0.00000000 </i>
    <i name="Eion">      0.00000000 </i>
   </dipole>
   <energy>
    <i name="e_fr_energy">    -61.15846505 </i>
    <i name="e_wo_entrp">    -61.15353041 </i>
    <i name="e_0_energy">    -61.15682017 </i>
   </energy>
  </scstep>
  <scstep>
   <time name="dav">    1.00    1.01</time>
   <time name="total">    1.00    1.01</time>
   <dipole>
    <v name="dipole">      0.00000000       0.00000000      -0.00003924 </v>
    <i name="Tr[quadrupol]">  -4530.19073463 </i>
    <i name="Echarged">      0.00000000 </i>
    <i name="Edipol_quadrupol">      0.00000000 </i>
    <i name="Eion">      0.00000000 </i>
   </dipole>
   <energy>
    <i name="e_fr_energy">   -190.49466608 </i>
    <i name="e_wo_entrp">   -190.43678531 </i>
    <i name="e_0_energy">   -190.47537249 </i>
   </energy>
  </scstep>
  <scstep>
   <time name="dav">    1.00    1.01</time>
   <time name="total">    1.00    1.01</time>
   <dipole>
    <v name="dipole">      0.00000000       0.00000000      -0.00003924 </v>
    <i name="Tr[quadrupol]">  -4530.19073463 </i>
    <i name="Echarged">      0.00000000 </i>
    <i name="Edipol_quadrupol">      0.00000000 </i>
    <i name="Eion">      0.00000000 </i>
   </dipole>
   <energy>
    <i name="e_fr_energy">   -195.60198269 </i>
    <i name="e_wo_entrp">   -195.52305155 </i>
    <i name="e_0_energy">   -195.57567231 </i>
   </energy>
  </scstep>
  <scstep>
   <time name="dav">    1.06    1.06</time>
   <time name="total">    1.10    1.11</time>
   <dipole>
    <v name="dipole">      0.00000000       0.00000000      -0.00003924 </v>
    <i name="Tr[quadrupol]">  -4530.19073463 </i>
    <i name="Echarged">      0.00000000 </i>
    <i name="Edipol_quadrupol">      0.00000000 </i>
    <i name="Eion">      0.00000000 </i>
   </dipole>
   <energy>
    <i name="e_fr_energy">   -195.77670615 </i>
    <i name="e_wo_entrp">   -195.69767647 </i>
    <i name="e_0_energy">   -195.75036292 </i>
   </energy>
  </scstep>
  <scstep>
   <time name="diag">    0.15    0.15</time>
   <time name="diis">    0.51    0.51</time>
   <time name="orth">    0.02    0.02</time>
   <time name="total">    0.77    0.78</time>
   <dipole>
    <v name="dipole">      0.00000000       0.00000000      -0.32218888 </v>
    <i name="Tr[quadrupol]">  -4534.23294621 </i>
    <i name="Echarged">      0.00000000 </i>
    <i name="Edipol_quadrupol">      0.00000000 </i>
    <i name="Eion">      0.00000000 </i>
   </dipole>
   <energy>
    <i name="e_fr_energy">   -188.76815873 </i>
    <i name="e_wo_entrp">   -188.77243136 </i>
    <i name="e_0_energy">   -188.76958294 </i>
   </energy>
  </scstep>
  <scstep>
   <time name="diag">    0.15    0.15</time>
   <time name="diis">    0.64    0.65</time>
   <time name="orth">    0.02    0.02</time>
   <time name="total">    0.90    0.91</time>
   <dipole>
    <v name="dipole">      0.00000000       0.00000000       2.35119321 </v>
    <i name="Tr[quadrupol]">  -4537.89234917 </i>
    <i name="Echarged">      0.00000000 </i>
    <i name="Edipol_quadrupol">      0.00000000 </i>
    <i name="Eion">      0.00000000 </i>
   </dipole>
   <energy>
    <i name="e_fr_energy">   -289.01486516 </i>
    <i name="e_wo_entrp">   -288.98273790 </i>
    <i name="e_0_energy">   -289.00415607 </i>
   </energy>
  </scstep>
  <scstep>
   <time name="diag">    0.15    0.15</time>
   <time name="diis">    0.55    0.55</time>
   <time name="orth">    0.02    0.02</time>
   <time name="total">    0.81    0.81</time>
   <dipole>
    <v name="dipole">      0.00000000       0.00000000       0.01257664 </v>
    <i name="Tr[quadrupol]">  -4540.57286269 </i>
    <i name="Echarged">      0.00000000 </i>
    <i name="Edipol_quadrupol">      0.00000000 </i>
    <i name="Eion">      0.00000000 </i>
   </dipole>
   <energy>
    <i name="e_fr_energy">   -203.84341765 </i>
    <i name="e_wo_entrp">   -203.84057644 </i>
    <i name="e_0_energy">   -203.84247058 </i>
   </energy>
  </scstep>
  <scstep>
   <time name="diag">    0.15    0.15</time>
   <time name="diis">    0.54    0.55</time>
   <time name="orth">    0.02    0.02</time>
   <time name="total">    0.80    0.80</time>
   <dipole>
    <v name="dipole">      0.00000000       0.00000000      -0.21607661 </v>
    <i name="Tr[quadrupol]">  -4538.19473520 </i>
    <i name="Echarged">      0.00000000 </i>
    <i name="Edipol_quadrupol">      0.00000000 </i>
    <i name="Eion">      0.00000000 </i>
   </dipole>
   <energy>
    <i name="e_fr_energy">   -188.59995979 </i>
    <i name="e_wo_entrp">   -188.55276815 </i>
    <i name="e_0_energy">   -188.58422924 </i>
   </energy>
  </scstep>
  <scstep>
   <time name="diag">    0.15    0.15</time>
   <time name="diis">    0.52    0.53</time>
   <time name="orth">    0.02    0.02</time>
   <time name="total">    0.78    0.79</time>
   <dipole>
    <v name="dipole">      0.00000000       0.00000000      -0.24714832 </v>
    <i name="Tr[quadrupol]">  -4538.14887923 </i>
    <i name="Echarged">      0.00000000 </i>
    <i name="Edipol_quadrupol">      0.00000000 </i>
    <i name="Eion">      0.00000000 </i>
   </dipole>
   <energy>
    <i name="e_fr_energy">   -188.10686952 </i>
    <i name="e_wo_entrp">   -188.04727265 </i>
    <i name="e_0_energy">   -188.08700390 </i>
   </energy>
  </scstep>
  <scstep>
   <time name="diag">    0.15    0.15</time>
   <time name="diis">    0.54    0.55</time>
   <time name="orth">    0.02    0.02</time>
   <time name="total">    0.80    0.80</time>
   <dipole>
    <v name="dipole">      0.00000000       0.00000000      -0.20547520 </v>
    <i name="Tr[quadrupol]">  -4538.91219205 </i>
    <i name="Echarged">      0.00000000 </i>
    <i name="Edipol_quadrupol">      0.00000000 </i>
    <i name="Eion">      0.00000000 </i>
   </dipole>
   <energy>
    <i name="e_fr_energy">   -187.62272360 </i>
    <i name="e_wo_entrp">   -187.56654169 </i>
    <i name="e_0_energy">   -187.60399629 </i>
   </energy>
  </scstep>
  <scstep>
   <time name="diag">    0.15    0.15</time>
   <time name="diis">    0.53    0.54</time>
   <time name="orth">    0.02    0.02</time>
   <time name="total">    0.79    0.80</time>
   <dipole>
    <v name="dipole">      0.00000000       0.00000000      -0.23489259 </v>
    <i name="Tr[quadrupol]">  -4539.24739603 </i>
    <i name="Echarged">      0.00000000 </i>
    <i name="Edipol_quadrupol">      0.00000000 </i>
    <i name="Eion">      0.00000000 </i>
   </dipole>
   <energy>
    <i name="e_fr_energy">   -187.39099979 </i>
    <i name="e_wo_entrp">   -187.32055002 </i>
    <i name="e_0_energy">   -187.36751653 </i>
   </energy>
  </scstep>
  <scstep>
   <time name="diag">    0.15    0.15</time>
   <time name="diis">    0.54    0.54</time>
   <time name="orth">    0.02    0.02</time>
   <time name="total">    0.80    0.80</time>
   <dipole>
    <v name="dipole">      0.00000000       0.00000000      -0.22558384 </v>
    <i name="Tr[quadrupol]">  -4539.77875214 </i>
    <i name="Echarged">      0.00000000 </i>
    <i name="Edipol_quadrupol">      0.00000000 </i>
    <i name="Eion">      0.00000000 </i>
   </dipole>
   <energy>
    <i name="e_fr_energy">   -187.03467700 </i>
    <i name="e_wo_entrp">   -186.95716354 </i>
    <i name="e_0_energy">   -187.00883918 </i>
   </energy>
  </scstep>
  <scstep>
   <time name="diag">    0.15    0.15</time>
   <time name="diis">    0.53    0.53</time>
   <time name="orth">    0.02    0.02</time>
   <time name="total">    0.79    0.79</time>
   <dipole>
    <v name="dipole">      0.00000000       0.00000000      -0.22894568 </v>
    <i name="Tr[quadrupol]">  -4539.88848061 </i>
    <i name="Echarged">      0.00000000 </i>
    <i name="Edipol_quadrupol">      0.00000000 </i>
    <i name="Eion">      0.00000000 </i>
   </dipole>
   <energy>
    <i name="e_fr_energy">   -186.88853850 </i>
    <i name="e_wo_entrp">   -186.79635513 </i>
    <i name="e_0_energy">   -186.85781071 </i>
   </energy>
  </scstep>
  <scstep>
   <time name="diag">    0.15    0.15</time>
   <time name="diis">    0.54    0.54</time>
   <time name="orth">    0.02    0.02</time>
   <time name="total">    0.80    0.80</time>
   <dipole>
    <v name="dipole">      0.00000000       0.00000000      -0.22601905 </v>
    <i name="Tr[quadrupol]">  -4540.24596468 </i>
    <i name="Echarged">      0.00000000 </i>
    <i name="Edipol_quadrupol">      0.00000000 </i>
    <i name="Eion">      0.00000000 </i>
   </dipole>
   <energy>
    <i name="e_fr_energy">   -186.86184342 </i>
    <i name="e_wo_entrp">   -186.76829618 </i>
    <i name="e_0_energy">   -186.83066101 </i>
   </energy>
  </scstep>
  <scstep>
   <time name="diag">    0.15    0.15</time>
   <time name="diis">    0.54    0.54</time>
   <time name="orth">    0.02    0.02</time>
   <time name="total">    0.80    0.80</time>
   <dipole>
    <v name="dipole">      0.00000000       0.00000000      -0.22407736 </v>
    <i name="Tr[quadrupol]">  -4540.41582012 </i>
    <i name="Echarged">      0.00000000 </i>
    <i name="Edipol_quadrupol">      0.00000000 </i>
    <i name="Eion">      0.00000000 </i>
   </dipole>
   <energy>
    <i name="e_fr_energy">   -186.84650611 </i>
    <i name="e_wo_entrp">   -186.75050687 </i>
    <i name="e_0_energy">   -186.81450636 </i>
   </energy>
  </scstep>
  <scstep>
   <time name="diag">    0.15    0.15</time>
   <time name="diis">    0.54    0.54</time>
   <time name="orth">    0.02    0.02</time>
   <time name="total">    0.80    0.80</time>
   <dipole>
    <v name="dipole">      0.00000000       0.00000000      -0.21858787 </v>
    <i name="Tr[quadrupol]">  -4540.63848246 </i>
    <i name="Echarged">      0.00000000 </i>
    <i name="Edipol_quadrupol">      0.00000000 </i>
    <i name="Eion">      0.00000000 </i>
   </dipole>
   <energy>
    <i name="e_fr_energy">   -186.84558974 </i>
    <i name="e_wo_entrp">   -186.74955053 </i>
    <i name="e_0_energy">   -186.81357667 </i>
   </energy>
  </scstep>
  <scstep>
   <time name="diag">    0.15    0.15</time>
   <time name="diis">    0.56    0.57</time>
   <time name="orth">    0.02    0.02</time>
   <time name="total">    0.82    0.82</time>
   <dipole>
    <v name="dipole">      0.00000000       0.00000000      -0.21468878 </v>
    <i name="Tr[quadrupol]">  -4541.16964548 </i>
    <i name="Echarged">      0.00000000 </i>
    <i name="Edipol_quadrupol">      0.00000000 </i>
    <i name="Eion">      0.00000000 </i>
   </dipole>
   <energy>
    <i name="e_fr_energy">   -186.84006661 </i>
    <i name="e_wo_entrp">   -186.74473289 </i>
    <i name="e_0_energy">   -186.80828870 </i>
   </energy>
  </scstep>
  <scstep>
   <time name="diag">    0.15    0.15</time>
   <time name="diis">    0.54    0.54</time>
   <time name="orth">    0.02    0.02</time>
   <time name="total">    0.80    0.80</time>
   <dipole>
    <v name="dipole">      0.00000000       0.00000000      -0.21389295 </v>
    <i name="Tr[quadrupol]">  -4541.46143734 </i>
    <i name="Echarged">      0.00000000 </i>
    <i name="Edipol_quadrupol">      0.00000000 </i>
    <i name="Eion">      0.00000000 </i>
   </dipole>
   <energy>
    <i name="e_fr_energy">   -186.83616584 </i>
    <i name="e_wo_entrp">   -186.74151632 </i>
    <i name="e_0_energy">   -186.80461600 </i>
   </energy>
  </scstep>
  <scstep>
   <time name="diag">    0.15    0.15</time>
   <time name="diis">    0.55    0.55</time>
   <time name="orth">    0.02    0.02</time>
   <time name="total">    0.81    0.81</time>
   <dipole>
    <v name="dipole">      0.00000000       0.00000000      -0.21688770 </v>
    <i name="Tr[quadrupol]">  -4541.73589000 </i>
    <i name="Echarged">      0.00000000 </i>
    <i name="Edipol_quadrupol">      0.00000000 </i>
    <i name="Eion">      0.00000000 </i>
   </dipole>
   <energy>
    <i name="e_fr_energy">   -186.83389535 </i>
    <i name="e_wo_entrp">   -186.73818080 </i>
    <i name="e_0_energy">   -186.80199050 </i>
   </energy>
  </scstep>
  <scstep>
   <time name="diag">    0.15    0.15</time>
   <time name="diis">    0.54    0.54</time>
   <time name="orth">    0.02    0.02</time>
   <time name="total">    0.80    0.80</time>
   <dipole>
    <v name="dipole">      0.00000000       0.00000000      -0.21778059 </v>
    <i name="Tr[quadrupol]">  -4541.92653647 </i>
    <i name="Echarged">      0.00000000 </i>
    <i name="Edipol_quadrupol">      0.00000000 </i>
    <i name="Eion">      0.00000000 </i>
   </dipole>
   <energy>
    <i name="e_fr_energy">   -186.83330128 </i>
    <i name="e_wo_entrp">   -186.73751481 </i>
    <i name="e_0_energy">   -186.80137246 </i>
   </energy>
  </scstep>
  <scstep>
   <time name="diag">    0.15    0.15</time>
   <time name="diis">    0.57    0.58</time>
   <time name="orth">    0.02    0.02</time>
   <time name="total">    0.83    0.84</time>
   <dipole>
    <v name="dipole">      0.00000000       0.00000000      -0.22099168 </v>
    <i name="Tr[quadrupol]">  -4542.22102485 </i>
    <i name="Echarged">      0.00000000 </i>
    <i name="Edipol_quadrupol">      0.00000000 </i>
    <i name="Eion">      0.00000000 </i>
   </dipole>
   <energy>
    <i name="e_fr_energy">   -186.83305459 </i>
    <i name="e_wo_entrp">   -186.73689242 </i>
    <i name="e_0_energy">   -186.80100053 </i>
   </energy>
  </scstep>
  <scstep>
   <time name="diag">    0.15    0.15</time>
   <time name="diis">    0.51    0.52</time>
   <time name="orth">    0.02    0.02</time>
   <time name="total">    0.78    0.78</time>
   <dipole>
    <v name="dipole">      0.00000000       0.00000000      -0.22187649 </v>
    <i name="Tr[quadrupol]">  -4542.48646565 </i>
    <i name="Echarged">      0.00000000 </i>
    <i name="Edipol_quadrupol">      0.00000000 </i>
    <i name="Eion">      0.00000000 </i>
   </dipole>
   <energy>
    <i name="e_fr_energy">   -186.83272783 </i>
    <i name="e_wo_entrp">   -186.73664501 </i>
    <i name="e_0_energy">   -186.80070022 </i>
   </energy>
  </scstep>
  <scstep>
   <time name="diag">    0.15    0.15</time>
   <time name="diis">    0.42    0.42</time>
   <time name="orth">    0.02    0.02</time>
   <time name="total">    0.68    0.68</time>
   <dipole>
    <v name="dipole">      0.00000000       0.00000000      -0.22349736 </v>
    <i name="Tr[quadrupol]">  -4542.62956638 </i>
    <i name="Echarged">      0.00000000 </i>
    <i name="Edipol_quadrupol">      0.00000000 </i>
    <i name="Eion">      0.00000000 </i>
   </dipole>
   <energy>
    <i name="e_fr_energy">   -186.83259653 </i>
    <i name="e_wo_entrp">   -186.73674534 </i>
    <i name="e_0_energy">   -186.80064613 </i>
   </energy>
  </scstep>
  <scstep>
   <time name="diag">    0.15    0.15</time>
   <time name="diis">    0.38    0.39</time>
   <time name="orth">    0.02    0.02</time>
   <time name="total">    0.64    0.64</time>
   <dipole>
    <v name="dipole">      0.00000000       0.00000000      -0.22539169 </v>
    <i name="Tr[quadrupol]">  -4542.79064058 </i>
    <i name="Echarged">      0.00000000 </i>
    <i name="Edipol_quadrupol">      0.00000000 </i>
    <i name="Eion">      0.00000000 </i>
   </dipole>
   <energy>
    <i name="e_fr_energy">   -186.83274194 </i>
    <i name="e_wo_entrp">   -186.73718313 </i>
    <i name="e_0_energy">   -186.80088900 </i>
   </energy>
  </scstep>
  <scstep>
   <time name="diag">    0.15    0.15</time>
   <time name="diis">    0.34    0.34</time>
   <time name="orth">    0.02    0.02</time>
   <time name="total">    0.56    0.56</time>
   <dipole>
    <v name="dipole">      0.00000000       0.00000000      -0.22184493 </v>
    <i name="Tr[quadrupol]">  -4542.87548664 </i>
    <i name="Echarged">      0.00000000 </i>
    <i name="Edipol_quadrupol">      0.00000000 </i>
    <i name="Eion">      0.00000000 </i>
   </dipole>
   <energy>
    <i name="alphaZ">    625.77170384 </i>
    <i name="ewald">  75199.42597465 </i>
    <i name="hartreedc">-106034.67396216 </i>
    <i name="XCdc">  -1053.11305438 </i>
    <i name="pawpsdc">  34417.76353306 </i>
    <i name="pawaedc"> -32246.83694324 </i>
    <i name="eentropy">     -0.09577431 </i>
    <i name="bandstr">   -547.63008065 </i>
    <i name="atom">  29452.55580095 </i>
    <i name="e_fr_energy">   -186.83280223 </i>
    <i name="e_wo_entrp">   -186.73702793 </i>
    <i name="e_0_energy">   -186.80087746 </i>
   </energy>
  </scstep>
  <structure>
   <crystal>
    <varray name="basis" >
     <v>       8.35800215       0.00000000       0.00000000 </v>
     <v>       0.00000000       8.35800215       0.00000000 </v>
     <v>       0.00000000       0.00000000      19.91000000 </v>
    </varray>
    <i name="volume">   1390.83694200 </i>
    <varray name="rec_basis" >
     <v>       0.11964582       0.00000000       0.00000000 </v>
     <v>       0.00000000       0.11964582       0.00000000 </v>
     <v>       0.00000000       0.00000000       0.05022602 </v>
    </varray>
   </crystal>
   <varray name="positions" >
    <v>       0.16666667       0.16666667       0.00000000 </v>
    <v>       0.50000000       0.16666667       0.00000000 </v>
    <v>       0.83333333       0.16666667       0.00000000 </v>
    <v>       0.16666667       0.50000000       0.00000000 </v>
    <v>       0.50000000       0.50000000       0.00000000 </v>
    <v>       0.83333333       0.50000000       0.00000000 </v>
    <v>       0.16666667       0.83333333       0.00000000 </v>
    <v>       0.50000000       0.83333333       0.00000000 </v>
    <v>       0.83333333       0.83333333       0.00000000 </v>
    <v>       0.00000000       0.00000000       0.09894525 </v>
    <v>       0.33333333       0.00000000       0.09894525 </v>
    <v>       0.66666667       0.00000000       0.09894525 </v>
    <v>       0.00000000       0.33333333       0.09894525 </v>
    <v>       0.33333333       0.33333333       0.09894525 </v>
    <v>       0.66666667       0.33333333       0.09894525 </v>
    <v>       0.00000000       0.66666667       0.09894525 </v>
    <v>       0.33333333       0.66666667       0.09894525 </v>
    <v>       0.66666667       0.66666667       0.09894525 </v>
    <v>       0.16885356       0.16825249       0.19780759 </v>
    <v>       0.49914573       0.16679704       0.19800038 </v>
    <v>       0.83361515       0.16591477       0.19692077 </v>
    <v>       0.16788701       0.49738723       0.19775487 </v>
    <v>       0.49902159       0.49806052       0.19806700 </v>
    <v>       0.83414663       0.50045616       0.19671555 </v>
    <v>       0.16702863       0.83309610       0.19693012 </v>
    <v>       0.50170721       0.83310582       0.19652823 </v>
    <v>       0.83472877       0.83282307       0.19654411 </v>
    <v>       0.00151419       0.99925417       0.29563843 </v>
    <v>       0.33453680       0.99692233       0.29469741 </v>
    <v>       0.67062651       0.99851594       0.29571944 </v>
    <v>       0.99769684       0.33293738       0.29486402 </v>
    <v>       0.32582819       0.33142917       0.30203328 </v>
    <v>       0.66715683       0.33329135       0.29599315 </v>
    <v>       0.00081212       0.66768561       0.29576333 </v>
    <v>       0.33550094       0.66626656       0.29439216 </v>
    <v>       0.67015181       0.66714050       0.29545987 </v>
    <v>       0.57377025       0.33427998       0.39125346 </v>
    <v>       0.41721719       0.49405205       0.42408549 </v>
    <v>       0.41133435       0.33422268       0.41186103 </v>
   </varray>
  </structure>
  <varray name="forces" >
   <v>       0.01568861       0.01136871       0.11834690 </v>
   <v>      -0.00116183       0.00230531       0.11599188 </v>
   <v>      -0.01339079       0.00692188       0.10790593 </v>
   <v>       0.01271170      -0.00516685       0.11900403 </v>
   <v>       0.00041169       0.00184143       0.11738135 </v>
   <v>      -0.01166472      -0.00010559       0.10367078 </v>
   <v>       0.00835488      -0.00222950       0.10486872 </v>
   <v>      -0.00674203      -0.00113252       0.10001072 </v>
   <v>      -0.02547933      -0.00671244       0.03682581 </v>
   <v>       0.04092565       0.01939172      -0.11437563 </v>
   <v>       0.00083534       0.05071671      -0.03365773 </v>
   <v>       0.01485443       0.01686146      -0.09057894 </v>
   <v>       0.05214410      -0.01899793      -0.00861344 </v>
   <v>       0.02742522      -0.00939258      -0.16432378 </v>
   <v>      -0.07289883      -0.00570885      -0.02531145 </v>
   <v>       0.04617098      -0.00818853      -0.12297518 </v>
   <v>       0.00564667      -0.07832478      -0.02521864 </v>
   <v>      -0.00442579      -0.03530632      -0.08499467 </v>
   <v>      -0.03169445      -0.03355474       0.01922273 </v>
   <v>       0.04456581      -0.01472843      -0.00931573 </v>
   <v>       0.00470859       0.03270691      -0.00962578 </v>
   <v>      -0.00757261       0.07102169       0.00500371 </v>
   <v>       0.05203585       0.04086814      -0.04661799 </v>
   <v>      -0.03053692      -0.03737172       0.01759768 </v>
   <v>       0.02270521      -0.01941350      -0.05583204 </v>
   <v>       0.00459639      -0.01581779       0.04184445 </v>
   <v>      -0.01184241       0.03573478      -0.01263389 </v>
   <v>      -0.02434282      -0.01790267      -0.04077003 </v>
   <v>       0.02081626      -0.00646221      -0.01707488 </v>
   <v>      -0.05887067      -0.02049479      -0.07517608 </v>
   <v>      -0.11621443       0.01309535       0.00100594 </v>
   <v>      -0.01860945       0.00145307      -0.04251450 </v>
   <v>       0.02939806      -0.00394495       0.04181175 </v>
   <v>       0.01403745      -0.01374217      -0.05369200 </v>
   <v>      -0.04132300       0.03085629      -0.01859081 </v>
   <v>      -0.04041821       0.02696379      -0.06521097 </v>
   <v>       0.07611101      -0.04233522      -0.02498520 </v>
   <v>      -0.01000827       0.08930274       0.00925668 </v>
   <v>       0.03305263      -0.05437591       0.08234031 </v>
  </varray>
  <varray name="stress" >
   <v>     -24.95502537      -0.04689845      -0.24314722 </v>
   <v>      -0.04689850     -25.33332893       0.13742520 </v>
   <v>      -0.24314719       0.13742509      -5.19347242 </v>
  </varray>
  <energy>
   <i name="e_fr_energy">   -186.83280223 </i>
   <i name="e_wo_entrp">   -186.73702793 </i>
   <i name="e_0_energy">   -186.80087746 </i>
  </energy>
  <time name="totalsc">   22.36   22.48</time>
  <eigenvalues>
   <array>
    <dimension dim="1">band</dimension>
    <dimension dim="2">kpoint</dimension>
    <dimension dim="3">spin</dimension>
    <field>eigene</field>
    <field>occ</field>
    <set>
     <set comment="spin 1">
      <set comment="kpoint 1">
       <r>  -14.1698    1.0000 </r>
       <r>   -6.4623    1.0000 </r>
       <r>   -5.2464    1.0000 </r>
       <r>   -5.1013    1.0000 </r>
       <r>   -4.1748    1.0000 </r>
       <r>   -4.1499    1.0000 </r>
       <r>   -3.9356    1.0000 </r>
       <r>   -3.7908    1.0000 </r>
       <r>   -3.7061    1.0000 </r>
       <r>   -3.6916    1.0000 </r>
       <r>   -3.6895    1.0000 </r>
       <r>   -3.6723    1.0000 </r>
       <r>   -3.6670    1.0000 </r>
       <r>   -3.6226    1.0000 </r>
       <r>   -3.5731    1.0000 </r>
       <r>   -3.5425    1.0000 </r>
       <r>   -3.5147    1.0000 </r>
       <r>   -3.5018    1.0000 </r>
       <r>   -3.4941    1.0000 </r>
       <r>   -3.4361    1.0000 </r>
       <r>   -3.3868    1.0000 </r>
       <r>   -3.2818    1.0000 </r>
       <r>   -3.2793    1.0000 </r>
       <r>   -3.2737    1.0000 </r>
       <r>   -3.2544    1.0000 </r>
       <r>   -3.1426    1.0000 </r>
       <r>   -3.1383    1.0000 </r>
       <r>   -3.1258    1.0000 </r>
       <r>   -3.0963    1.0000 </r>
       <r>   -3.0846    1.0000 </r>
       <r>   -3.0719    1.0000 </r>
       <r>   -3.0592    1.0000 </r>
       <r>   -2.9738    1.0000 </r>
       <r>   -2.9614    1.0000 </r>
       <r>   -2.9536    1.0000 </r>
       <r>   -2.8889    1.0000 </r>
       <r>   -2.8256    1.0000 </r>
       <r>   -2.8042    1.0000 </r>
       <r>   -2.7982    1.0000 </r>
       <r>   -2.7881    1.0000 </r>
       <r>   -2.7828    1.0000 </r>
       <r>   -2.7678    1.0000 </r>
       <r>   -2.7585    1.0000 </r>
       <r>   -2.7524    1.0000 </r>
       <r>   -2.7261    1.0000 </r>
       <r>   -2.6119    1.0000 </r>
       <r>   -2.5281    1.0000 </r>
       <r>   -2.5176    1.0000 </r>
       <r>   -2.4914    1.0000 </r>
       <r>   -2.4648    1.0000 </r>
       <r>   -2.4411    1.0000 </r>
       <r>   -2.3801    1.0000 </r>
       <r>   -2.3643    1.0000 </r>
       <r>   -2.3435    1.0000 </r>
       <r>   -2.3321    1.0000 </r>
       <r>   -2.3079    1.0000 </r>
       <r>   -2.2998    1.0000 </r>
       <r>   -2.2732    1.0000 </r>
       <r>   -2.1962    1.0000 </r>
       <r>   -2.1814    1.0000 </r>
       <r>   -2.1262    1.0000 </r>
       <r>   -2.1159    1.0000 </r>
       <r>   -2.0159    1.0000 </r>
       <r>   -2.0070    1.0000 </r>
       <r>   -1.9766    1.0000 </r>
       <r>   -1.9681    1.0000 </r>
       <r>   -1.9531    1.0000 </r>
       <r>   -1.9193    1.0000 </r>
       <r>   -1.9130    1.0000 </r>
       <r>   -1.8452    1.0000 </r>
       <r>   -1.8233    1.0000 </r>
       <r>   -1.8171    1.0000 </r>
       <r>   -1.7539    1.0000 </r>
       <r>   -1.7446    1.0000 </r>
       <r>   -1.7105    1.0000 </r>
       <r>   -1.6363    1.0000 </r>
       <r>   -1.6225    1.0000 </r>
       <r>   -1.6128    1.0000 </r>
       <r>   -1.5708    1.0000 </r>
       <r>   -1.5592    1.0000 </r>
       <r>   -1.5407    1.0000 </r>
       <r>   -1.5316    1.0000 </r>
       <r>   -1.5229    1.0000 </r>
       <r>   -1.5136    1.0000 </r>
       <r>   -1.5024    1.0000 </r>
       <r>   -1.4795    1.0000 </r>
       <r>   -1.4583    1.0000 </r>
       <r>   -1.4393    1.0000 </r>
       <r>   -1.4312    1.0000 </r>
       <r>   -1.4209    1.0000 </r>
       <r>   -1.3268    1.0000 </r>
       <r>   -1.3040    1.0000 </r>
       <r>   -1.3004    1.0000 </r>
       <r>   -1.2828    1.0000 </r>
       <r>   -1.2782    1.0000 </r>
       <r>   -1.2557    1.0000 </r>
       <r>   -1.2484    1.0000 </r>
       <r>   -1.2286    1.0000 </r>
       <r>   -1.1738    1.0000 </r>
       <r>   -1.1485    1.0000 </r>
       <r>   -1.1365    1.0000 </r>
       <r>   -1.1076    1.0000 </r>
       <r>   -1.0795    1.0000 </r>
       <r>   -1.0534    1.0000 </r>
       <r>   -0.9921    1.0000 </r>
       <r>   -0.9709    1.0000 </r>
       <r>   -0.9635    1.0000 </r>
       <r>   -0.9144    1.0000 </r>
       <r>   -0.9129    1.0000 </r>
       <r>   -0.8420    1.0000 </r>
       <r>   -0.7814    1.0000 </r>
       <r>   -0.7613    1.0000 </r>
       <r>   -0.7405    1.0000 </r>
       <r>   -0.7158    1.0000 </r>
       <r>   -0.7094    1.0000 </r>
       <r>   -0.7014    1.0000 </r>
       <r>   -0.6625    1.0000 </r>
       <r>   -0.6531    1.0000 </r>
       <r>   -0.6408    1.0000 </r>
       <r>   -0.6386    1.0000 </r>
       <r>   -0.6307    1.0000 </r>
       <r>   -0.6163    1.0000 </r>
       <r>   -0.5987    1.0000 </r>
       <r>   -0.5915    1.0000 </r>
       <r>   -0.5416    1.0000 </r>
       <r>   -0.5297    1.0000 </r>
       <r>   -0.5009    1.0000 </r>
       <r>   -0.4903    1.0000 </r>
       <r>   -0.4585    1.0000 </r>
       <r>   -0.4504    1.0000 </r>
       <r>   -0.3535    1.0000 </r>
       <r>   -0.3411    1.0000 </r>
       <r>   -0.3173    1.0000 </r>
       <r>   -0.2982    1.0000 </r>
       <r>   -0.2895    1.0000 </r>
       <r>   -0.2761    1.0000 </r>
       <r>   -0.2671    1.0000 </r>
       <r>   -0.2355    1.0000 </r>
       <r>   -0.2193    1.0000 </r>
       <r>   -0.1847    1.0000 </r>
       <r>   -0.1160    1.0000 </r>
       <r>   -0.0949    1.0000 </r>
       <r>   -0.0750    1.0000 </r>
       <r>   -0.0524    1.0000 </r>
       <r>   -0.0444    1.0000 </r>
       <r>   -0.0120    1.0000 </r>
       <r>   -0.0011    1.0000 </r>
       <r>    0.0081    1.0000 </r>
       <r>    0.0200    1.0000 </r>
       <r>    0.0332    1.0000 </r>
       <r>    0.1014    1.0000 </r>
       <r>    0.1571    1.0000 </r>
       <r>    0.1963    1.0000 </r>
       <r>    0.2272    1.0000 </r>
       <r>    0.2498    1.0000 </r>
       <r>    0.2797    1.0000 </r>
       <r>    0.2933    1.0000 </r>
       <r>    0.3075    1.0000 </r>
       <r>    0.3285    1.0000 </r>
       <r>    0.3446    1.0000 </r>
       <r>    0.3586    1.0000 </r>
       <r>    0.3773    1.0000 </r>
       <r>    0.3923    1.0000 </r>
       <r>    0.4070    1.0000 </r>
       <r>    0.4119    1.0000 </r>
       <r>    0.4639    1.0000 </r>
       <r>    0.5082    1.0000 </r>
       <r>    0.5155    1.0001 </r>
       <r>    0.5448    1.0003 </r>
       <r>    0.5624    1.0007 </r>
       <r>    0.5784    1.0014 </r>
       <r>    0.5845    1.0018 </r>
       <r>    0.5913    1.0024 </r>
       <r>    0.6030    1.0038 </r>
       <r>    0.6134    1.0056 </r>
       <r>    0.6225    1.0076 </r>
       <r>    0.6460    1.0152 </r>
       <r>    0.6904    1.0338 </r>
       <r>    0.7247    1.0245 </r>
       <r>    0.7269    1.0219 </r>
       <r>    0.7657    0.9126 </r>
       <r>    0.7950    0.7344 </r>
       <r>    0.8097    0.6197 </r>
       <r>    0.8131    0.5921 </r>
       <r>    0.8322    0.4316 </r>
       <r>    0.8498    0.2901 </r>
       <r>    0.8650    0.1838 </r>
       <r>    0.8678    0.1663 </r>
       <r>    0.9283   -0.0290 </r>
       <r>    1.0060   -0.0137 </r>
       <r>    1.1162   -0.0001 </r>
       <r>    1.1397   -0.0000 </r>
       <r>    1.6136   -0.0000 </r>
       <r>    1.6857   -0.0000 </r>
       <r>    1.6947   -0.0000 </r>
       <r>    1.8472   -0.0000 </r>
       <r>    1.8754   -0.0000 </r>
       <r>    1.9677   -0.0000 </r>
       <r>    2.1672   -0.0000 </r>
       <r>    2.2955   -0.0000 </r>
       <r>    2.3123   -0.0000 </r>
       <r>    2.7302   -0.0000 </r>
       <r>    3.2070    0.0000 </r>
       <r>    3.3794    0.0000 </r>
       <r>    3.4858    0.0000 </r>
       <r>    3.5845    0.0000 </r>
       <r>    3.6567    0.0000 </r>
       <r>    3.7644    0.0000 </r>
       <r>    3.9649    0.0000 </r>
       <r>    4.1496    0.0000 </r>
       <r>    4.3474    0.0000 </r>
       <r>    4.4354    0.0000 </r>
       <r>    4.9215    0.0000 </r>
       <r>    4.9471    0.0000 </r>
       <r>    5.3008    0.0000 </r>
       <r>    5.3503    0.0000 </r>
       <r>    5.5079    0.0000 </r>
       <r>    5.7002    0.0000 </r>
       <r>    5.7806    0.0000 </r>
       <r>    6.1020    0.0000 </r>
      </set>
      <set comment="kpoint 2">
       <r>  -14.1698    1.0000 </r>
       <r>   -6.4625    1.0000 </r>
       <r>   -5.2369    1.0000 </r>
       <r>   -5.1123    1.0000 </r>
       <r>   -4.1694    1.0000 </r>
       <r>   -4.1484    1.0000 </r>
       <r>   -3.9404    1.0000 </r>
       <r>   -3.7937    1.0000 </r>
       <r>   -3.7031    1.0000 </r>
       <r>   -3.6971    1.0000 </r>
       <r>   -3.6816    1.0000 </r>
       <r>   -3.6749    1.0000 </r>
       <r>   -3.6682    1.0000 </r>
       <r>   -3.6220    1.0000 </r>
       <r>   -3.5731    1.0000 </r>
       <r>   -3.5420    1.0000 </r>
       <r>   -3.5155    1.0000 </r>
       <r>   -3.5015    1.0000 </r>
       <r>   -3.4904    1.0000 </r>
       <r>   -3.4447    1.0000 </r>
       <r>   -3.3720    1.0000 </r>
       <r>   -3.2860    1.0000 </r>
       <r>   -3.2822    1.0000 </r>
       <r>   -3.2724    1.0000 </r>
       <r>   -3.2630    1.0000 </r>
       <r>   -3.1432    1.0000 </r>
       <r>   -3.1363    1.0000 </r>
       <r>   -3.1254    1.0000 </r>
       <r>   -3.0994    1.0000 </r>
       <r>   -3.0806    1.0000 </r>
       <r>   -3.0709    1.0000 </r>
       <r>   -3.0601    1.0000 </r>
       <r>   -2.9733    1.0000 </r>
       <r>   -2.9635    1.0000 </r>
       <r>   -2.9540    1.0000 </r>
       <r>   -2.8902    1.0000 </r>
       <r>   -2.8234    1.0000 </r>
       <r>   -2.8034    1.0000 </r>
       <r>   -2.8000    1.0000 </r>
       <r>   -2.7851    1.0000 </r>
       <r>   -2.7834    1.0000 </r>
       <r>   -2.7666    1.0000 </r>
       <r>   -2.7594    1.0000 </r>
       <r>   -2.7547    1.0000 </r>
       <r>   -2.7219    1.0000 </r>
       <r>   -2.6116    1.0000 </r>
       <r>   -2.5314    1.0000 </r>
       <r>   -2.5161    1.0000 </r>
       <r>   -2.4874    1.0000 </r>
       <r>   -2.4777    1.0000 </r>
       <r>   -2.4287    1.0000 </r>
       <r>   -2.3840    1.0000 </r>
       <r>   -2.3613    1.0000 </r>
       <r>   -2.3418    1.0000 </r>
       <r>   -2.3341    1.0000 </r>
       <r>   -2.3071    1.0000 </r>
       <r>   -2.3012    1.0000 </r>
       <r>   -2.2731    1.0000 </r>
       <r>   -2.1988    1.0000 </r>
       <r>   -2.1768    1.0000 </r>
       <r>   -2.1284    1.0000 </r>
       <r>   -2.1123    1.0000 </r>
       <r>   -2.0172    1.0000 </r>
       <r>   -2.0049    1.0000 </r>
       <r>   -1.9780    1.0000 </r>
       <r>   -1.9669    1.0000 </r>
       <r>   -1.9550    1.0000 </r>
       <r>   -1.9198    1.0000 </r>
       <r>   -1.9124    1.0000 </r>
       <r>   -1.8456    1.0000 </r>
       <r>   -1.8237    1.0000 </r>
       <r>   -1.8155    1.0000 </r>
       <r>   -1.7534    1.0000 </r>
       <r>   -1.7487    1.0000 </r>
       <r>   -1.7092    1.0000 </r>
       <r>   -1.6343    1.0000 </r>
       <r>   -1.6238    1.0000 </r>
       <r>   -1.6101    1.0000 </r>
       <r>   -1.5709    1.0000 </r>
       <r>   -1.5586    1.0000 </r>
       <r>   -1.5411    1.0000 </r>
       <r>   -1.5361    1.0000 </r>
       <r>   -1.5193    1.0000 </r>
       <r>   -1.5148    1.0000 </r>
       <r>   -1.5035    1.0000 </r>
       <r>   -1.4910    1.0000 </r>
       <r>   -1.4548    1.0000 </r>
       <r>   -1.4388    1.0000 </r>
       <r>   -1.4310    1.0000 </r>
       <r>   -1.4252    1.0000 </r>
       <r>   -1.3250    1.0000 </r>
       <r>   -1.3025    1.0000 </r>
       <r>   -1.2988    1.0000 </r>
       <r>   -1.2866    1.0000 </r>
       <r>   -1.2731    1.0000 </r>
       <r>   -1.2595    1.0000 </r>
       <r>   -1.2506    1.0000 </r>
       <r>   -1.2215    1.0000 </r>
       <r>   -1.1751    1.0000 </r>
       <r>   -1.1571    1.0000 </r>
       <r>   -1.1374    1.0000 </r>
       <r>   -1.1149    1.0000 </r>
       <r>   -1.0714    1.0000 </r>
       <r>   -1.0363    1.0000 </r>
       <r>   -1.0097    1.0000 </r>
       <r>   -0.9637    1.0000 </r>
       <r>   -0.9430    1.0000 </r>
       <r>   -0.9145    1.0000 </r>
       <r>   -0.9128    1.0000 </r>
       <r>   -0.8507    1.0000 </r>
       <r>   -0.7796    1.0000 </r>
       <r>   -0.7599    1.0000 </r>
       <r>   -0.7405    1.0000 </r>
       <r>   -0.7165    1.0000 </r>
       <r>   -0.7081    1.0000 </r>
       <r>   -0.7053    1.0000 </r>
       <r>   -0.6632    1.0000 </r>
       <r>   -0.6535    1.0000 </r>
       <r>   -0.6399    1.0000 </r>
       <r>   -0.6375    1.0000 </r>
       <r>   -0.6312    1.0000 </r>
       <r>   -0.6168    1.0000 </r>
       <r>   -0.6006    1.0000 </r>
       <r>   -0.5919    1.0000 </r>
       <r>   -0.5430    1.0000 </r>
       <r>   -0.5294    1.0000 </r>
       <r>   -0.5015    1.0000 </r>
       <r>   -0.4896    1.0000 </r>
       <r>   -0.4602    1.0000 </r>
       <r>   -0.4508    1.0000 </r>
       <r>   -0.3508    1.0000 </r>
       <r>   -0.3391    1.0000 </r>
       <r>   -0.3209    1.0000 </r>
       <r>   -0.2968    1.0000 </r>
       <r>   -0.2914    1.0000 </r>
       <r>   -0.2756    1.0000 </r>
       <r>   -0.2700    1.0000 </r>
       <r>   -0.2364    1.0000 </r>
       <r>   -0.2206    1.0000 </r>
       <r>   -0.1865    1.0000 </r>
       <r>   -0.1038    1.0000 </r>
       <r>   -0.0965    1.0000 </r>
       <r>   -0.0786    1.0000 </r>
       <r>   -0.0534    1.0000 </r>
       <r>   -0.0423    1.0000 </r>
       <r>   -0.0107    1.0000 </r>
       <r>   -0.0008    1.0000 </r>
       <r>    0.0076    1.0000 </r>
       <r>    0.0183    1.0000 </r>
       <r>    0.0296    1.0000 </r>
       <r>    0.1035    1.0000 </r>
       <r>    0.1571    1.0000 </r>
       <r>    0.1980    1.0000 </r>
       <r>    0.2259    1.0000 </r>
       <r>    0.2487    1.0000 </r>
       <r>    0.2801    1.0000 </r>
       <r>    0.2930    1.0000 </r>
       <r>    0.3062    1.0000 </r>
       <r>    0.3289    1.0000 </r>
       <r>    0.3430    1.0000 </r>
       <r>    0.3590    1.0000 </r>
       <r>    0.3779    1.0000 </r>
       <r>    0.3903    1.0000 </r>
       <r>    0.4051    1.0000 </r>
       <r>    0.4125    1.0000 </r>
       <r>    0.4625    1.0000 </r>
       <r>    0.5078    1.0000 </r>
       <r>    0.5175    1.0001 </r>
       <r>    0.5444    1.0003 </r>
       <r>    0.5635    1.0007 </r>
       <r>    0.5778    1.0014 </r>
       <r>    0.5856    1.0019 </r>
       <r>    0.5894    1.0022 </r>
       <r>    0.6044    1.0040 </r>
       <r>    0.6135    1.0056 </r>
       <r>    0.6230    1.0077 </r>
       <r>    0.6464    1.0153 </r>
       <r>    0.6918    1.0342 </r>
       <r>    0.7246    1.0246 </r>
       <r>    0.7272    1.0215 </r>
       <r>    0.7666    0.9083 </r>
       <r>    0.7961    0.7268 </r>
       <r>    0.8084    0.6303 </r>
       <r>    0.8146    0.5797 </r>
       <r>    0.8322    0.4314 </r>
       <r>    0.8501    0.2875 </r>
       <r>    0.8639    0.1905 </r>
       <r>    0.8685    0.1618 </r>
       <r>    0.9282   -0.0289 </r>
       <r>    1.0057   -0.0138 </r>
       <r>    1.1161   -0.0001 </r>
       <r>    1.1407   -0.0000 </r>
       <r>    1.6136   -0.0000 </r>
       <r>    1.6850   -0.0000 </r>
       <r>    1.6916   -0.0000 </r>
       <r>    1.8445   -0.0000 </r>
       <r>    1.8726   -0.0000 </r>
       <r>    1.9676   -0.0000 </r>
       <r>    2.1634   -0.0000 </r>
       <r>    2.2962   -0.0000 </r>
       <r>    2.3178   -0.0000 </r>
       <r>    2.7334   -0.0000 </r>
       <r>    3.2379    0.0000 </r>
       <r>    3.3728    0.0000 </r>
       <r>    3.4755    0.0000 </r>
       <r>    3.5700    0.0000 </r>
       <r>    3.6656    0.0000 </r>
       <r>    3.7717    0.0000 </r>
       <r>    3.9443    0.0000 </r>
       <r>    4.1545    0.0000 </r>
       <r>    4.3234    0.0000 </r>
       <r>    4.4447    0.0000 </r>
       <r>    4.9166    0.0000 </r>
       <r>    4.9353    0.0000 </r>
       <r>    5.3340    0.0000 </r>
       <r>    5.3964    0.0000 </r>
       <r>    5.5024    0.0000 </r>
       <r>    5.6802    0.0000 </r>
       <r>    5.7245    0.0000 </r>
       <r>    6.1322    0.0000 </r>
      </set>
     </set>
    </set>
   </array>
  </eigenvalues>
  <separator name="orbital magnetization" >
   <v name="MAGDIPOLOUT">      0.00000000      0.00000000      0.00000000</v>
  </separator>
  <dos>
   <i name="efermi">      0.82404788 </i>
   <total>
    <array>
     <dimension dim="1">gridpoints</dimension>
     <dimension dim="2">spin</dimension>
     <field>energy</field>
     <field>total</field>
     <field>integrated</field>
     <set>
      <set comment="spin 1">
       <r>   -15.1849     0.0000     0.0000 </r>
       <r>   -15.1105     0.0000     0.0000 </r>
       <r>   -15.0360    -0.0000    -0.0000 </r>
       <r>   -14.9616    -0.0000    -0.0000 </r>
       <r>   -14.8871    -0.0000    -0.0000 </r>
       <r>   -14.8127    -0.0000    -0.0000 </r>
       <r>   -14.7383    -0.0000    -0.0000 </r>
       <r>   -14.6638    -0.0000    -0.0000 </r>
       <r>   -14.5894    -0.0000    -0.0000 </r>
       <r>   -14.5149    -0.0002    -0.0000 </r>
       <r>   -14.4405    -0.0116    -0.0009 </r>
       <r>   -14.3661    -0.2302    -0.0180 </r>
       <r>   -14.2916    -0.7105    -0.0709 </r>
       <r>   -14.2172     4.8393     0.2893 </r>
       <r>   -14.1427    15.4581     1.4401 </r>
       <r>   -14.0683     8.2374     2.0532 </r>
       <r>   -13.9938    -0.2844     2.0321 </r>
       <r>   -13.9194    -0.4003     2.0023 </r>
       <r>   -13.8450    -0.0300     2.0000 </r>
       <r>   -13.7705    -0.0006     2.0000 </r>
       <r>   -13.6961    -0.0000     2.0000 </r>
       <r>   -13.6216    -0.0000     2.0000 </r>
       <r>   -13.5472    -0.0000     2.0000 </r>
       <r>   -13.4728     0.0000     2.0000 </r>
       <r>   -13.3983     0.0000     2.0000 </r>
       <r>   -13.3239     0.0000     2.0000 </r>
       <r>   -13.2494     0.0000     2.0000 </r>
       <r>   -13.1750     0.0000     2.0000 </r>
       <r>   -13.1006     0.0000     2.0000 </r>
       <r>   -13.0261     0.0000     2.0000 </r>
       <r>   -12.9517     0.0000     2.0000 </r>
       <r>   -12.8772     0.0000     2.0000 </r>
       <r>   -12.8028     0.0000     2.0000 </r>
       <r>   -12.7284     0.0000     2.0000 </r>
       <r>   -12.6539     0.0000     2.0000 </r>
       <r>   -12.5795     0.0000     2.0000 </r>
       <r>   -12.5050     0.0000     2.0000 </r>
       <r>   -12.4306     0.0000     2.0000 </r>
       <r>   -12.3562     0.0000     2.0000 </r>
       <r>   -12.2817     0.0000     2.0000 </r>
       <r>   -12.2073     0.0000     2.0000 </r>
       <r>   -12.1328     0.0000     2.0000 </r>
       <r>   -12.0584     0.0000     2.0000 </r>
       <r>   -11.9840     0.0000     2.0000 </r>
       <r>   -11.9095     0.0000     2.0000 </r>
       <r>   -11.8351     0.0000     2.0000 </r>
       <r>   -11.7606     0.0000     2.0000 </r>
       <r>   -11.6862     0.0000     2.0000 </r>
       <r>   -11.6117     0.0000     2.0000 </r>
       <r>   -11.5373     0.0000     2.0000 </r>
       <r>   -11.4629     0.0000     2.0000 </r>
       <r>   -11.3884     0.0000     2.0000 </r>
       <r>   -11.3140     0.0000     2.0000 </r>
       <r>   -11.2395     0.0000     2.0000 </r>
       <r>   -11.1651     0.0000     2.0000 </r>
       <r>   -11.0907     0.0000     2.0000 </r>
       <r>   -11.0162     0.0000     2.0000 </r>
       <r>   -10.9418     0.0000     2.0000 </r>
       <r>   -10.8673     0.0000     2.0000 </r>
       <r>   -10.7929     0.0000     2.0000 </r>
       <r>   -10.7185     0.0000     2.0000 </r>
       <r>   -10.6440     0.0000     2.0000 </r>
       <r>   -10.5696     0.0000     2.0000 </r>
       <r>   -10.4951     0.0000     2.0000 </r>
       <r>   -10.4207     0.0000     2.0000 </r>
       <r>   -10.3463     0.0000     2.0000 </r>
       <r>   -10.2718     0.0000     2.0000 </r>
       <r>   -10.1974     0.0000     2.0000 </r>
       <r>   -10.1229     0.0000     2.0000 </r>
       <r>   -10.0485     0.0000     2.0000 </r>
       <r>    -9.9741     0.0000     2.0000 </r>
       <r>    -9.8996     0.0000     2.0000 </r>
       <r>    -9.8252     0.0000     2.0000 </r>
       <r>    -9.7507     0.0000     2.0000 </r>
       <r>    -9.6763     0.0000     2.0000 </r>
       <r>    -9.6019     0.0000     2.0000 </r>
       <r>    -9.5274     0.0000     2.0000 </r>
       <r>    -9.4530     0.0000     2.0000 </r>
       <r>    -9.3785     0.0000     2.0000 </r>
       <r>    -9.3041     0.0000     2.0000 </r>
       <r>    -9.2296     0.0000     2.0000 </r>
       <r>    -9.1552     0.0000     2.0000 </r>
       <r>    -9.0808     0.0000     2.0000 </r>
       <r>    -9.0063     0.0000     2.0000 </r>
       <r>    -8.9319     0.0000     2.0000 </r>
       <r>    -8.8574     0.0000     2.0000 </r>
       <r>    -8.7830     0.0000     2.0000 </r>
       <r>    -8.7086     0.0000     2.0000 </r>
       <r>    -8.6341     0.0000     2.0000 </r>
       <r>    -8.5597     0.0000     2.0000 </r>
       <r>    -8.4852     0.0000     2.0000 </r>
       <r>    -8.4108     0.0000     2.0000 </r>
       <r>    -8.3364     0.0000     2.0000 </r>
       <r>    -8.2619     0.0000     2.0000 </r>
       <r>    -8.1875     0.0000     2.0000 </r>
       <r>    -8.1130     0.0000     2.0000 </r>
       <r>    -8.0386     0.0000     2.0000 </r>
       <r>    -7.9642     0.0000     2.0000 </r>
       <r>    -7.8897     0.0000     2.0000 </r>
       <r>    -7.8153     0.0000     2.0000 </r>
       <r>    -7.7408     0.0000     2.0000 </r>
       <r>    -7.6664     0.0000     2.0000 </r>
       <r>    -7.5920     0.0000     2.0000 </r>
       <r>    -7.5175     0.0000     2.0000 </r>
       <r>    -7.4431     0.0000     2.0000 </r>
       <r>    -7.3686     0.0000     2.0000 </r>
       <r>    -7.2942    -0.0000     2.0000 </r>
       <r>    -7.2197    -0.0000     2.0000 </r>
       <r>    -7.1453    -0.0000     2.0000 </r>
       <r>    -7.0709    -0.0000     2.0000 </r>
       <r>    -6.9964    -0.0000     2.0000 </r>
       <r>    -6.9220    -0.0000     2.0000 </r>
       <r>    -6.8475    -0.0000     2.0000 </r>
       <r>    -6.7731    -0.0014     1.9999 </r>
       <r>    -6.6987    -0.0549     1.9958 </r>
       <r>    -6.6242    -0.5411     1.9555 </r>
       <r>    -6.5498     0.4212     1.9869 </r>
       <r>    -6.4753    10.6988     2.7833 </r>
       <r>    -6.4009    14.3755     3.8534 </r>
       <r>    -6.3265     2.8594     4.0663 </r>
       <r>    -6.2520    -0.7391     4.0113 </r>
       <r>    -6.1776    -0.1456     4.0004 </r>
       <r>    -6.1031    -0.0056     4.0000 </r>
       <r>    -6.0287    -0.0001     4.0000 </r>
       <r>    -5.9543    -0.0000     4.0000 </r>
       <r>    -5.8798    -0.0000     4.0000 </r>
       <r>    -5.8054    -0.0000     4.0000 </r>
       <r>    -5.7309    -0.0000     4.0000 </r>
       <r>    -5.6565    -0.0000     4.0000 </r>
       <r>    -5.5821    -0.0002     4.0000 </r>
       <r>    -5.5076    -0.0149     3.9989 </r>
       <r>    -5.4332    -0.2669     3.9790 </r>
       <r>    -5.3587    -0.6756     3.9287 </r>
       <r>    -5.2843     5.2131     4.3168 </r>
       <r>    -5.2099    15.2640     5.4530 </r>
       <r>    -5.1354    15.3955     6.5991 </r>
       <r>    -5.0610    15.0362     7.7184 </r>
       <r>    -4.9865     4.7451     8.0716 </r>
       <r>    -4.9121    -0.7051     8.0191 </r>
       <r>    -4.8376    -0.2437     8.0010 </r>
       <r>    -4.7632    -0.0129     8.0000 </r>
       <r>    -4.6888    -0.0002     8.0000 </r>
       <r>    -4.6143    -0.0000     8.0000 </r>
       <r>    -4.5399    -0.0000     8.0000 </r>
       <r>    -4.4654    -0.0046     7.9997 </r>
       <r>    -4.3910    -0.1514     7.9884 </r>
       <r>    -4.3166    -1.1787     7.9006 </r>
       <r>    -4.2421     1.9804     8.0481 </r>
       <r>    -4.1677    23.0095     9.7609 </r>
       <r>    -4.0932    26.3742    11.7242 </r>
       <r>    -4.0188     5.4707    12.1315 </r>
       <r>    -3.9444     9.6474    12.8496 </r>
       <r>    -3.8699    12.8128    13.8034 </r>
       <r>    -3.7955    11.7643    14.6791 </r>
       <r>    -3.7210    44.8763    18.0198 </r>
       <r>    -3.6466    85.6241    24.3937 </r>
       <r>    -3.5722    72.3230    29.7775 </r>
       <r>    -3.4977    72.5449    35.1777 </r>
       <r>    -3.4233    57.5125    39.4590 </r>
       <r>    -3.3488    32.7099    41.8940 </r>
       <r>    -3.2744    52.8951    45.8315 </r>
       <r>    -3.2000    54.5006    49.8886 </r>
       <r>    -3.1255    65.9438    54.7975 </r>
       <r>    -3.0511    91.6281    61.6183 </r>
       <r>    -2.9766    64.7699    66.4398 </r>
       <r>    -2.9022    48.3504    70.0391 </r>
       <r>    -2.8278    67.5353    75.0664 </r>
       <r>    -2.7533   123.4920    84.2593 </r>
       <r>    -2.6789    76.1456    89.9276 </r>
       <r>    -2.6044    18.3695    91.2950 </r>
       <r>    -2.5300    38.5563    94.1652 </r>
       <r>    -2.4555    65.7358    99.0586 </r>
       <r>    -2.3811    71.0502   104.3476 </r>
       <r>    -2.3067    90.7751   111.1050 </r>
       <r>    -2.2322    69.5948   116.2856 </r>
       <r>    -2.1578    48.3993   119.8885 </r>
       <r>    -2.0833    44.0304   123.1662 </r>
       <r>    -2.0089    53.9287   127.1807 </r>
       <r>    -1.9345    87.0322   133.6594 </r>
       <r>    -1.8600    74.4128   139.1987 </r>
       <r>    -1.7856    63.5742   143.9312 </r>
       <r>    -1.7111    56.6685   148.1497 </r>
       <r>    -1.6367    54.3340   152.1943 </r>
       <r>    -1.5623    97.9034   159.4823 </r>
       <r>    -1.4878   137.5215   169.7195 </r>
       <r>    -1.4134   104.3054   177.4841 </r>
       <r>    -1.3389    62.6530   182.1480 </r>
       <r>    -1.2645    98.3621   189.4701 </r>
       <r>    -1.1901    98.3429   196.7908 </r>
       <r>    -1.1156    73.8883   202.2911 </r>
       <r>    -1.0412    63.5982   207.0254 </r>
       <r>    -0.9667    64.4299   211.8216 </r>
       <r>    -0.8923    65.1194   216.6692 </r>
       <r>    -0.8179    43.8895   219.9363 </r>
       <r>    -0.7434    67.3489   224.9498 </r>
       <r>    -0.6690   123.5164   234.1445 </r>
       <r>    -0.5945   139.4560   244.5257 </r>
       <r>    -0.5201   103.4721   252.2282 </r>
       <r>    -0.4457    73.5454   257.7029 </r>
       <r>    -0.3712    50.8514   261.4884 </r>
       <r>    -0.2968    89.3113   268.1368 </r>
       <r>    -0.2223   103.5709   275.8466 </r>
       <r>    -0.1479    59.0835   280.2449 </r>
       <r>    -0.0734    70.3594   285.4825 </r>
       <r>     0.0010   111.3702   293.7729 </r>
       <r>     0.0754    83.5057   299.9891 </r>
       <r>     0.1499    39.9250   302.9612 </r>
       <r>     0.2243    53.9067   306.9740 </r>
       <r>     0.2988    92.5858   313.8662 </r>
       <r>     0.3732   118.7951   322.7094 </r>
       <r>     0.4476    95.0633   329.7859 </r>
       <r>     0.5221    80.0891   335.7478 </r>
       <r>     0.5965   127.1564   345.2134 </r>
       <r>     0.6710   115.9283   353.8432 </r>
       <r>     0.7454    79.6037   359.7690 </r>
       <r>     0.8198   103.9957   367.5105 </r>
       <r>     0.8943   100.9345   375.0241 </r>
       <r>     0.9687    44.6737   378.3496 </r>
       <r>     1.0432    19.1844   379.7777 </r>
       <r>     1.1176    26.4631   381.7477 </r>
       <r>     1.1920    26.8072   383.7432 </r>
       <r>     1.2665     5.1548   384.1269 </r>
       <r>     1.3409    -1.4167   384.0215 </r>
       <r>     1.4154    -0.5240   383.9825 </r>
       <r>     1.4898    -1.1563   383.8964 </r>
       <r>     1.5642     3.0803   384.1257 </r>
       <r>     1.6387    23.8821   385.9035 </r>
       <r>     1.7131    37.7689   388.7150 </r>
       <r>     1.7876    20.7892   390.2626 </r>
       <r>     1.8620    24.4238   392.0807 </r>
       <r>     1.9364    30.9625   394.3856 </r>
       <r>     2.0109    17.8875   395.7171 </r>
       <r>     2.0853     4.9877   396.0884 </r>
       <r>     2.1598     9.7064   396.8110 </r>
       <r>     2.2342    16.9748   398.0746 </r>
       <r>     2.3087    28.1150   400.1675 </r>
       <r>     2.3831    23.6249   401.9261 </r>
       <r>     2.4575     2.4124   402.1057 </r>
       <r>     2.5320    -1.4599   401.9971 </r>
       <r>     2.6064    -0.9034   401.9298 </r>
       <r>     2.6809     4.3034   402.2502 </r>
       <r>     2.7553    15.2604   403.3861 </r>
       <r>     2.8297     8.8590   404.0456 </r>
       <r>     2.9042    -0.1434   404.0349 </r>
       <r>     2.9786    -0.4824   403.9990 </r>
       <r>     3.0531    -0.5044   403.9615 </r>
       <r>     3.1275     0.1946   403.9760 </r>
       <r>     3.2019     8.9173   404.6398 </r>
       <r>     3.2764    14.1778   405.6952 </r>
       <r>     3.3508    11.8367   406.5763 </r>
       <r>     3.4253    17.7063   407.8944 </r>
       <r>     3.4997    19.9344   409.3783 </r>
       <r>     3.5741    21.3494   410.9676 </r>
       <r>     3.6486    23.0426   412.6829 </r>
       <r>     3.7230    20.7654   414.2287 </r>
       <r>     3.7975    17.0616   415.4987 </r>
       <r>     3.8719     7.8532   416.0833 </r>
       <r>     3.9463    10.7131   416.8808 </r>
       <r>     4.0208    12.5442   417.8146 </r>
       <r>     4.0952     5.8215   418.2480 </r>
       <r>     4.1697    13.6035   419.2606 </r>
       <r>     4.2441     9.8644   419.9949 </r>
       <r>     4.3186     9.4228   420.6964 </r>
       <r>     4.3930    18.8834   422.1021 </r>
       <r>     4.4674    18.8955   423.5087 </r>
       <r>     4.5419     7.4898   424.0662 </r>
       <r>     4.6163    -0.4549   424.0324 </r>
       <r>     4.6908    -0.5131   423.9942 </r>
       <r>     4.7652    -1.0497   423.9160 </r>
       <r>     4.8396     0.7553   423.9722 </r>
       <r>     4.9141    20.2264   425.4779 </r>
       <r>     4.9885    28.8071   427.6223 </r>
       <r>     5.0630     6.7887   428.1277 </r>
       <r>     5.1374    -1.8444   427.9904 </r>
       <r>     5.2118    -1.0673   427.9109 </r>
       <r>     5.2863     8.4956   428.5433 </r>
       <r>     5.3607    24.7149   430.3831 </r>
       <r>     5.4352    20.9476   431.9425 </r>
       <r>     5.5096    15.8235   433.1204 </r>
       <r>     5.5840    10.3795   433.8931 </r>
       <r>     5.6585     9.1194   434.5719 </r>
       <r>     5.7329    24.0961   436.3656 </r>
       <r>     5.8074    19.0153   437.7811 </r>
       <r>     5.8818     3.8402   438.0670 </r>
       <r>     5.9562    -1.2449   437.9743 </r>
       <r>     6.0307     0.4833   438.0103 </r>
       <r>     6.1051    10.6974   438.8066 </r>
       <r>     6.1796    13.8676   439.8389 </r>
       <r>     6.2540     2.9989   440.0622 </r>
       <r>     6.3284    -0.6727   440.0121 </r>
       <r>     6.4029    -0.1556   440.0005 </r>
       <r>     6.4773    -0.0070   440.0000 </r>
       <r>     6.5518    -0.0001   440.0000 </r>
       <r>     6.6262    -0.0000   440.0000 </r>
       <r>     6.7007    -0.0000   440.0000 </r>
       <r>     6.7751    -0.0000   440.0000 </r>
       <r>     6.8495     0.0000   440.0000 </r>
       <r>     6.9240     0.0000   440.0000 </r>
       <r>     6.9984     0.0000   440.0000 </r>
       <r>     7.0729     0.0000   440.0000 </r>
       <r>     7.1473     0.0000   440.0000 </r>
      </set>
     </set>
    </array>
   </total>
  </dos>
 </calculation>
 <structure name="finalpos" >
  <crystal>
   <varray name="basis" >
    <v>       8.35800215       0.00000000       0.00000000 </v>
    <v>       0.00000000       8.35800215       0.00000000 </v>
    <v>       0.00000000       0.00000000      19.91000000 </v>
   </varray>
   <i name="volume">   1390.83694200 </i>
   <varray name="rec_basis" >
    <v>       0.11964582       0.00000000       0.00000000 </v>
    <v>       0.00000000       0.11964582       0.00000000 </v>
    <v>       0.00000000       0.00000000       0.05022602 </v>
   </varray>
  </crystal>
  <varray name="positions" >
   <v>       0.16666667       0.16666667       0.00000000 </v>
   <v>       0.50000000       0.16666667       0.00000000 </v>
   <v>       0.83333333       0.16666667       0.00000000 </v>
   <v>       0.16666667       0.50000000       0.00000000 </v>
   <v>       0.50000000       0.50000000       0.00000000 </v>
   <v>       0.83333333       0.50000000       0.00000000 </v>
   <v>       0.16666667       0.83333333       0.00000000 </v>
   <v>       0.50000000       0.83333333       0.00000000 </v>
   <v>       0.83333333       0.83333333       0.00000000 </v>
   <v>       0.00000000       0.00000000       0.09894525 </v>
   <v>       0.33333333       0.00000000       0.09894525 </v>
   <v>       0.66666667       0.00000000       0.09894525 </v>
   <v>       0.00000000       0.33333333       0.09894525 </v>
   <v>       0.33333333       0.33333333       0.09894525 </v>
   <v>       0.66666667       0.33333333       0.09894525 </v>
   <v>       0.00000000       0.66666667       0.09894525 </v>
   <v>       0.33333333       0.66666667       0.09894525 </v>
   <v>       0.66666667       0.66666667       0.09894525 </v>
   <v>       0.16885356       0.16825249       0.19780759 </v>
   <v>       0.49914573       0.16679704       0.19800038 </v>
   <v>       0.83361515       0.16591477       0.19692077 </v>
   <v>       0.16788701       0.49738723       0.19775487 </v>
   <v>       0.49902159       0.49806052       0.19806700 </v>
   <v>       0.83414663       0.50045616       0.19671555 </v>
   <v>       0.16702863       0.83309610       0.19693012 </v>
   <v>       0.50170721       0.83310582       0.19652823 </v>
   <v>       0.83472877       0.83282307       0.19654411 </v>
   <v>       0.00151419       0.99925417       0.29563843 </v>
   <v>       0.33453680       0.99692233       0.29469741 </v>
   <v>       0.67062651       0.99851594       0.29571944 </v>
   <v>       0.99769684       0.33293738       0.29486402 </v>
   <v>       0.32582819       0.33142917       0.30203328 </v>
   <v>       0.66715683       0.33329135       0.29599315 </v>
   <v>       0.00081212       0.66768561       0.29576333 </v>
   <v>       0.33550094       0.66626656       0.29439216 </v>
   <v>       0.67015181       0.66714050       0.29545987 </v>
   <v>       0.57377025       0.33427998       0.39125346 </v>
   <v>       0.41721719       0.49405205       0.42408549 </v>
   <v>       0.41133435       0.33422268       0.41186103 </v>
  </varray>
  <varray name="selective"  type="logical" >
   <v type="logical" >  F  F  F </v>
   <v type="logical" >  F  F  F </v>
   <v type="logical" >  F  F  F </v>
   <v type="logical" >  F  F  F </v>
   <v type="logical" >  F  F  F </v>
   <v type="logical" >  F  F  F </v>
   <v type="logical" >  F  F  F </v>
   <v type="logical" >  F  F  F </v>
   <v type="logical" >  F  F  F </v>
   <v type="logical" >  F  F  F </v>
   <v type="logical" >  F  F  F </v>
   <v type="logical" >  F  F  F </v>
   <v type="logical" >  F  F  F </v>
   <v type="logical" >  F  F  F </v>
   <v type="logical" >  F  F  F </v>
   <v type="logical" >  F  F  F </v>
   <v type="logical" >  F  F  F </v>
   <v type="logical" >  F  F  F </v>
   <v type="logical" >  T  T  T </v>
   <v type="logical" >  T  T  T </v>
   <v type="logical" >  T  T  T </v>
   <v type="logical" >  T  T  T </v>
   <v type="logical" >  T  T  T </v>
   <v type="logical" >  T  T  T </v>
   <v type="logical" >  T  T  T </v>
   <v type="logical" >  T  T  T </v>
   <v type="logical" >  T  T  T </v>
   <v type="logical" >  T  T  T </v>
   <v type="logical" >  T  T  T </v>
   <v type="logical" >  T  T  T </v>
   <v type="logical" >  T  T  T </v>
   <v type="logical" >  T  T  T </v>
   <v type="logical" >  T  T  T </v>
   <v type="logical" >  T  T  T </v>
   <v type="logical" >  T  T  T </v>
   <v type="logical" >  T  T  T </v>
   <v type="logical" >  T  T  T </v>
   <v type="logical" >  T  T  T </v>
   <v type="logical" >  T  T  T </v>
  </varray>
  <nose>
   <v>      -3.00000000       0.00000000       0.00010000       0.00010000 </v>
  </nose>
 </structure>
</modeling>
