unknown system                          
           1
     8.358002    0.000000    0.000000
     0.000000    8.358002    0.000000
     0.000000    0.000000   19.910000
   Pd   H    S 
    36     2     1
Direct configuration=     1
   0.16666667  0.16666667  0.00000000
   0.50000000  0.16666667  0.00000000
   0.83333333  0.16666667  0.00000000
   0.16666667  0.50000000  0.00000000
   0.50000000  0.50000000  0.00000000
   0.83333333  0.50000000  0.00000000
   0.16666667  0.83333333  0.00000000
   0.50000000  0.83333333  0.00000000
   0.83333333  0.83333333  0.00000000
   0.00000000  0.00000000  0.09894525
   0.33333333  0.00000000  0.09894525
   0.66666667  0.00000000  0.09894525
   0.00000000  0.33333333  0.09894525
   0.33333333  0.33333333  0.09894525
   0.66666667  0.33333333  0.09894525
   0.00000000  0.66666667  0.09894525
   0.33333333  0.66666667  0.09894525
   0.66666667  0.66666667  0.09894525
   0.16885356  0.16825249  0.19780759
   0.49914573  0.16679704  0.19800038
   0.83361515  0.16591477  0.19692077
   0.16788701  0.49738723  0.19775487
   0.49902159  0.49806052  0.19806700
   0.83414663  0.50045616  0.19671555
   0.16702863  0.83309610  0.19693012
   0.50170721  0.83310582  0.19652823
   0.83472877  0.83282307  0.19654411
   0.00151419  0.99925417  0.29563843
   0.33453680  0.99692233  0.29469741
   0.67062651  0.99851594  0.29571944
   0.99769684  0.33293738  0.29486402
   0.32582819  0.33142917  0.30203328
   0.66715683  0.33329135  0.29599315
   0.00081212  0.66768561  0.29576333
   0.33550094  0.66626656  0.29439216
   0.67015181  0.66714050  0.29545987
   0.57377025  0.33427998  0.39125346
   0.41721719  0.49405205  0.42408549
   0.41133435  0.33422268  0.41186103
