  37  37   0   0
  0.4206308E+02  0.8803480E-09  0.8803480E-09  0.2318801E-08  0.5000000E-15
   1.0000000000000000E-004
  CAR 
 unknown system                          
      8.13508346    -18.47316445  301      0.45161645      1.00000000
    -18.473  0.0000E+00  0.0000E+00
    -18.384  0.0000E+00  0.0000E+00
    -18.296  0.0000E+00  0.0000E+00
    -18.207  0.0000E+00  0.0000E+00
    -18.118 -0.1008E-29 -0.8944E-31
    -18.030 -0.1583E-23 -0.1404E-24
    -17.941 -0.5085E-18 -0.4510E-19
    -17.852 -0.3203E-13 -0.2841E-14
    -17.764 -0.4241E-09 -0.3762E-10
    -17.675 -0.1108E-05 -0.9832E-07
    -17.586 -0.5614E-03 -0.4989E-04
    -17.498 -0.5139E-01 -0.4608E-02
    -17.409 -0.6181E+00 -0.5943E-01
    -17.320  0.2838E+01  0.1923E+00
    -17.231  0.1491E+02  0.1514E+01
    -17.143  0.6274E+01  0.2071E+01
    -17.054 -0.6678E+00  0.2012E+01
    -16.965 -0.1285E+00  0.2000E+01
    -16.877 -0.2316E-02  0.2000E+01
    -16.788 -0.7238E-05  0.2000E+01
    -16.699 -0.4333E-08  0.2000E+01
    -16.611 -0.5157E-12  0.2000E+01
    -16.522  0.0000E+00  0.2000E+01
    -16.433  0.0000E+00  0.2000E+01
    -16.345  0.0000E+00  0.2000E+01
    -16.256  0.0000E+00  0.2000E+01
    -16.167  0.0000E+00  0.2000E+01
    -16.078  0.0000E+00  0.2000E+01
    -15.990  0.0000E+00  0.2000E+01
    -15.901  0.0000E+00  0.2000E+01
    -15.812  0.0000E+00  0.2000E+01
    -15.724  0.0000E+00  0.2000E+01
    -15.635  0.0000E+00  0.2000E+01
    -15.546  0.0000E+00  0.2000E+01
    -15.458  0.0000E+00  0.2000E+01
    -15.369  0.0000E+00  0.2000E+01
    -15.280  0.0000E+00  0.2000E+01
    -15.191  0.0000E+00  0.2000E+01
    -15.103  0.0000E+00  0.2000E+01
    -15.014  0.0000E+00  0.2000E+01
    -14.925  0.0000E+00  0.2000E+01
    -14.837  0.0000E+00  0.2000E+01
    -14.748  0.0000E+00  0.2000E+01
    -14.659  0.0000E+00  0.2000E+01
    -14.571  0.0000E+00  0.2000E+01
    -14.482  0.0000E+00  0.2000E+01
    -14.393  0.0000E+00  0.2000E+01
    -14.305  0.0000E+00  0.2000E+01
    -14.216  0.0000E+00  0.2000E+01
    -14.127  0.0000E+00  0.2000E+01
    -14.038  0.0000E+00  0.2000E+01
    -13.950  0.0000E+00  0.2000E+01
    -13.861  0.0000E+00  0.2000E+01
    -13.772  0.0000E+00  0.2000E+01
    -13.684  0.0000E+00  0.2000E+01
    -13.595  0.0000E+00  0.2000E+01
    -13.506  0.0000E+00  0.2000E+01
    -13.418  0.0000E+00  0.2000E+01
    -13.329  0.0000E+00  0.2000E+01
    -13.240  0.0000E+00  0.2000E+01
    -13.152  0.0000E+00  0.2000E+01
    -13.063  0.0000E+00  0.2000E+01
    -12.974  0.0000E+00  0.2000E+01
    -12.885  0.0000E+00  0.2000E+01
    -12.797  0.0000E+00  0.2000E+01
    -12.708  0.0000E+00  0.2000E+01
    -12.619  0.0000E+00  0.2000E+01
    -12.531  0.0000E+00  0.2000E+01
    -12.442  0.0000E+00  0.2000E+01
    -12.353  0.0000E+00  0.2000E+01
    -12.265  0.0000E+00  0.2000E+01
    -12.176  0.0000E+00  0.2000E+01
    -12.087  0.0000E+00  0.2000E+01
    -11.998  0.0000E+00  0.2000E+01
    -11.910  0.0000E+00  0.2000E+01
    -11.821  0.0000E+00  0.2000E+01
    -11.732  0.0000E+00  0.2000E+01
    -11.644  0.0000E+00  0.2000E+01
    -11.555  0.0000E+00  0.2000E+01
    -11.466  0.0000E+00  0.2000E+01
    -11.378  0.0000E+00  0.2000E+01
    -11.289  0.0000E+00  0.2000E+01
    -11.200  0.0000E+00  0.2000E+01
    -11.112  0.0000E+00  0.2000E+01
    -11.023  0.0000E+00  0.2000E+01
    -10.934  0.0000E+00  0.2000E+01
    -10.845  0.0000E+00  0.2000E+01
    -10.757  0.0000E+00  0.2000E+01
    -10.668  0.0000E+00  0.2000E+01
    -10.579  0.0000E+00  0.2000E+01
    -10.491  0.0000E+00  0.2000E+01
    -10.402  0.0000E+00  0.2000E+01
    -10.313  0.0000E+00  0.2000E+01
    -10.225  0.0000E+00  0.2000E+01
    -10.136  0.0000E+00  0.2000E+01
    -10.047  0.0000E+00  0.2000E+01
     -9.959  0.0000E+00  0.2000E+01
     -9.870  0.0000E+00  0.2000E+01
     -9.781  0.0000E+00  0.2000E+01
     -9.692  0.0000E+00  0.2000E+01
     -9.604  0.0000E+00  0.2000E+01
     -9.515  0.0000E+00  0.2000E+01
     -9.426  0.0000E+00  0.2000E+01
     -9.338  0.0000E+00  0.2000E+01
     -9.249  0.0000E+00  0.2000E+01
     -9.160  0.0000E+00  0.2000E+01
     -9.072 -0.2474E-31  0.2000E+01
     -8.983 -0.5317E-25  0.2000E+01
     -8.894 -0.2339E-19  0.2000E+01
     -8.806 -0.2099E-14  0.2000E+01
     -8.717 -0.3682E-10  0.2000E+01
     -8.628 -0.1326E-06  0.2000E+01
     -8.539 -0.9331E-04  0.2000E+01
     -8.451 -0.1212E-01  0.1999E+01
     -8.362 -0.2333E+00  0.1978E+01
     -8.273  0.5455E+00  0.2027E+01
     -8.185  0.6713E+01  0.2622E+01
     -8.096  0.4577E+01  0.3028E+01
     -8.007 -0.3126E+00  0.3000E+01
     -7.919 -0.3245E+00  0.2971E+01
     -7.830  0.4515E+01  0.3372E+01
     -7.741  0.6755E+01  0.3971E+01
     -7.652  0.5757E+00  0.4022E+01
     -7.564 -0.2368E+00  0.4001E+01
     -7.475 -0.1268E-01  0.4000E+01
     -7.386 -0.1942E-01  0.3998E+01
     -7.298 -0.4141E+00  0.3962E+01
     -7.209  0.2443E+00  0.3983E+01
     -7.120  0.1388E+02  0.5214E+01
     -7.032  0.1833E+02  0.6840E+01
     -6.943  0.2402E+01  0.7053E+01
     -6.854  0.4768E+01  0.7476E+01
     -6.766  0.7699E+01  0.8159E+01
     -6.677  0.7661E+01  0.8838E+01
     -6.588  0.2117E+01  0.9026E+01
     -6.499 -0.9810E+00  0.8939E+01
     -6.411  0.4911E+01  0.9374E+01
     -6.322  0.1422E+02  0.1064E+02
     -6.233  0.5800E+01  0.1115E+02
     -6.145  0.1613E+02  0.1258E+02
     -6.056  0.2972E+02  0.1522E+02
     -5.967  0.3241E+02  0.1809E+02
     -5.879  0.3086E+02  0.2083E+02
     -5.790  0.3788E+02  0.2419E+02
     -5.701  0.5523E+02  0.2909E+02
     -5.613  0.3285E+02  0.3200E+02
     -5.524  0.3791E+02  0.3536E+02
     -5.435  0.5333E+02  0.4009E+02
     -5.346  0.4927E+02  0.4446E+02
     -5.258  0.8716E+02  0.5219E+02
     -5.169  0.9234E+02  0.6038E+02
     -5.080  0.5653E+02  0.6540E+02
     -4.992  0.5231E+02  0.7004E+02
     -4.903  0.5422E+02  0.7484E+02
     -4.814  0.4779E+02  0.7908E+02
     -4.726  0.3556E+02  0.8224E+02
     -4.637  0.6410E+02  0.8792E+02
     -4.548  0.7552E+02  0.9462E+02
     -4.459  0.5278E+02  0.9930E+02
     -4.371  0.6791E+02  0.1053E+03
     -4.282  0.7997E+02  0.1124E+03
     -4.193  0.6740E+02  0.1184E+03
     -4.105  0.7336E+02  0.1249E+03
     -4.016  0.7634E+02  0.1317E+03
     -3.927  0.6830E+02  0.1377E+03
     -3.839  0.7696E+02  0.1446E+03
     -3.750  0.9203E+02  0.1527E+03
     -3.661  0.1019E+03  0.1618E+03
     -3.573  0.1039E+03  0.1710E+03
     -3.484  0.1061E+03  0.1804E+03
     -3.395  0.1253E+03  0.1915E+03
     -3.306  0.9909E+02  0.2003E+03
     -3.218  0.8114E+02  0.2075E+03
     -3.129  0.8914E+02  0.2154E+03
     -3.040  0.8325E+02  0.2228E+03
     -2.952  0.6450E+02  0.2285E+03
     -2.863  0.7239E+02  0.2349E+03
     -2.774  0.9257E+02  0.2431E+03
     -2.686  0.8226E+02  0.2504E+03
     -2.597  0.6906E+02  0.2565E+03
     -2.508  0.7318E+02  0.2630E+03
     -2.420  0.7635E+02  0.2698E+03
     -2.331  0.7981E+02  0.2769E+03
     -2.242  0.8074E+02  0.2840E+03
     -2.153  0.9542E+02  0.2925E+03
     -2.065  0.9449E+02  0.3009E+03
     -1.976  0.9689E+02  0.3095E+03
     -1.887  0.7615E+02  0.3162E+03
     -1.799  0.6611E+02  0.3221E+03
     -1.710  0.6945E+02  0.3283E+03
     -1.621  0.1080E+03  0.3378E+03
     -1.533  0.1399E+03  0.3502E+03
     -1.444  0.1178E+03  0.3607E+03
     -1.355  0.8739E+02  0.3685E+03
     -1.266  0.6404E+02  0.3741E+03
     -1.178  0.3631E+02  0.3774E+03
     -1.089  0.1577E+02  0.3788E+03
     -1.000  0.1868E+02  0.3804E+03
     -0.912  0.2631E+02  0.3827E+03
     -0.823  0.2805E+02  0.3852E+03
     -0.734  0.2700E+02  0.3876E+03
     -0.646  0.1551E+02  0.3890E+03
     -0.557  0.9781E+01  0.3899E+03
     -0.468  0.2084E+02  0.3917E+03
     -0.380  0.1973E+02  0.3935E+03
     -0.291  0.8796E+01  0.3942E+03
     -0.202  0.1377E+02  0.3955E+03
     -0.113  0.6441E+01  0.3960E+03
     -0.025  0.5058E+01  0.3965E+03
      0.064  0.1507E+02  0.3978E+03
      0.153  0.1255E+02  0.3989E+03
      0.241  0.7537E+00  0.3990E+03
      0.330  0.5391E+01  0.3995E+03
      0.419  0.1834E+02  0.4011E+03
      0.507  0.2554E+02  0.4034E+03
      0.596  0.7716E+01  0.4041E+03
      0.685 -0.1012E+00  0.4041E+03
      0.773  0.1022E+02  0.4050E+03
      0.862  0.1837E+02  0.4066E+03
      0.951  0.1826E+02  0.4082E+03
      1.040  0.1780E+02  0.4098E+03
      1.128  0.1025E+02  0.4107E+03
      1.217  0.5222E+01  0.4112E+03
      1.306  0.1430E+02  0.4124E+03
      1.394  0.1398E+02  0.4137E+03
      1.483  0.9823E+01  0.4145E+03
      1.572  0.6055E+01  0.4151E+03
      1.660  0.6603E+01  0.4157E+03
      1.749  0.6474E+01  0.4162E+03
      1.838  0.1148E+02  0.4173E+03
      1.926  0.2073E+02  0.4191E+03
      2.015  0.9905E+01  0.4200E+03
      2.104  0.4247E+01  0.4203E+03
      2.193  0.2265E+02  0.4224E+03
      2.281  0.1794E+02  0.4239E+03
      2.370  0.1531E+01  0.4241E+03
      2.459  0.1181E+02  0.4251E+03
      2.547  0.9676E+01  0.4260E+03
      2.636  0.3002E+01  0.4263E+03
      2.725  0.1277E+02  0.4274E+03
      2.813  0.1396E+02  0.4286E+03
      2.902  0.2173E+02  0.4305E+03
      2.991  0.2542E+02  0.4328E+03
      3.080  0.1059E+02  0.4337E+03
      3.168  0.8739E+01  0.4345E+03
      3.257  0.9389E+01  0.4354E+03
      3.346  0.6357E+01  0.4359E+03
      3.434  0.4711E+01  0.4363E+03
      3.523  0.1465E+02  0.4376E+03
      3.612  0.2036E+02  0.4394E+03
      3.700  0.1611E+02  0.4409E+03
      3.789  0.1588E+01  0.4410E+03
      3.878  0.6955E+00  0.4411E+03
      3.966  0.1347E+02  0.4423E+03
      4.055  0.2625E+02  0.4446E+03
      4.144  0.2260E+02  0.4466E+03
      4.233  0.4533E+01  0.4470E+03
      4.321  0.5750E+01  0.4475E+03
      4.410  0.1406E+02  0.4488E+03
      4.499  0.9651E+01  0.4496E+03
      4.587  0.1820E+02  0.4512E+03
      4.676  0.1061E+02  0.4522E+03
      4.765  0.6816E+01  0.4528E+03
      4.853  0.1092E+02  0.4537E+03
      4.942  0.1650E+02  0.4552E+03
      5.031  0.9136E+01  0.4560E+03
      5.119  0.8386E+01  0.4568E+03
      5.208  0.1491E+02  0.4581E+03
      5.297  0.1882E+02  0.4598E+03
      5.386  0.1600E+02  0.4612E+03
      5.474  0.8711E+01  0.4619E+03
      5.563  0.1332E+02  0.4631E+03
      5.652  0.1771E+02  0.4647E+03
      5.740  0.1824E+02  0.4663E+03
      5.829  0.2123E+02  0.4682E+03
      5.918  0.3184E+02  0.4710E+03
      6.006  0.2697E+02  0.4734E+03
      6.095  0.2391E+02  0.4755E+03
      6.184  0.2341E+02  0.4776E+03
      6.273  0.9095E+01  0.4784E+03
      6.361 -0.7385E+00  0.4783E+03
      6.450 -0.7487E+00  0.4783E+03
      6.539  0.2622E+01  0.4785E+03
      6.627  0.1612E+02  0.4799E+03
      6.716  0.2178E+02  0.4819E+03
      6.805  0.1235E+02  0.4830E+03
      6.893  0.8331E+01  0.4837E+03
      6.982  0.3210E+01  0.4840E+03
      7.071  0.1868E+00  0.4840E+03
      7.159 -0.1233E+00  0.4840E+03
      7.248 -0.8809E-02  0.4840E+03
      7.337 -0.9450E-04  0.4840E+03
      7.426 -0.1862E-06  0.4840E+03
      7.514 -0.7134E-10  0.4840E+03
      7.603 -0.5841E-14  0.4840E+03
      7.692  0.0000E+00  0.4840E+03
      7.780  0.0000E+00  0.4840E+03
      7.869  0.0000E+00  0.4840E+03
      7.958  0.0000E+00  0.4840E+03
      8.046  0.0000E+00  0.4840E+03
      8.135  0.0000E+00  0.4840E+03
