 running   48 mpi-ranks, with    1 threads/rank, on    1 nodes
 distrk:  each k-point on   48 cores,    1 groups
 distr:  one band on   24 cores,    2 groups
 vasp.6.4.3 19Mar24 (build Oct  2 2024 09:01:45) complex                         
 POSCAR found type information on POSCAR AuO 
 POSCAR found :  2 types and      37 ions
 scaLAPACK will be used
 LDA part: xc-table for (Slater+PW92), standard interpolation
 POSCAR, INCAR and KPOINTS ok, starting setup
 FFT: planning ... GRIDC
 FFT: planning ... GRID_SOFT
 FFT: planning ... GRID
 WAVECAR not read
 WARNING: random wavefunctions but no delay for mixing, default for NELMDL
 entering main loop
       N       E                     dE             d eps       ncg     rms          rms(c)
DAV:   1     0.247480821130E+04    0.24748E+04   -0.15921E+05  2904   0.117E+03
DAV:   2     0.344195092048E+02   -0.24404E+04   -0.22553E+04  3360   0.271E+02
DAV:   3    -0.122540441733E+03   -0.15696E+03   -0.14976E+03  3312   0.622E+01
DAV:   4    -0.126836683112E+03   -0.42962E+01   -0.42605E+01  3232   0.103E+01
DAV:   5    -0.126990537489E+03   -0.15385E+00   -0.15341E+00  3448   0.194E+00    0.446E+01
RMM:   6    -0.120171219116E+03    0.68193E+01   -0.30363E+01  3123   0.116E+01    0.360E+01
RMM:   7    -0.134502723860E+03   -0.14332E+02   -0.35276E+01  3354   0.771E+00    0.320E+01
RMM:   8    -0.133721898980E+03    0.78082E+00   -0.30900E+01  3419   0.804E+00    0.244E+01
RMM:   9    -0.118006367731E+03    0.15716E+02   -0.11904E+01  3293   0.565E+00    0.109E+01
RMM:  10    -0.115404858636E+03    0.26015E+01   -0.59967E+00  3296   0.434E+00    0.432E+00
RMM:  11    -0.115396058783E+03    0.87999E-02   -0.94238E-01  3250   0.152E+00    0.473E+00
RMM:  12    -0.115297309594E+03    0.98749E-01   -0.45656E-01  3214   0.108E+00    0.185E+00
RMM:  13    -0.115244109735E+03    0.53200E-01   -0.34293E-02  3200   0.370E-01    0.134E+00
RMM:  14    -0.115202194455E+03    0.41915E-01   -0.28436E-02  3269   0.304E-01    0.466E-01
RMM:  15    -0.115200585856E+03    0.16086E-02   -0.11629E-02  3365   0.153E-01    0.185E-01
RMM:  16    -0.115202512919E+03   -0.19271E-02   -0.17527E-03  3159   0.718E-02    0.188E-01
RMM:  17    -0.115202825081E+03   -0.31216E-03   -0.12086E-03  3084   0.459E-02    0.503E-02
RMM:  18    -0.115203060806E+03   -0.23573E-03   -0.17900E-04  2043   0.197E-02    0.283E-02
RMM:  19    -0.115203550563E+03   -0.48976E-03   -0.14589E-04  2022   0.164E-02    0.143E-02
RMM:  20    -0.115203701787E+03   -0.15122E-03   -0.42044E-05  1730   0.911E-03    0.143E-02
RMM:  21    -0.115203848653E+03   -0.14687E-03   -0.49543E-05  1828   0.884E-03    0.312E-02
RMM:  22    -0.115203865240E+03   -0.16587E-04   -0.70938E-06   911   0.482E-03
   1 F= -.11520387E+03 E0= -.11519298E+03  d E =-.326488E-01
