<?xml version="1.0" encoding="ISO-8859-1"?>
<modeling>
 <generator>
  <i name="program" type="string">vasp </i>
  <i name="version" type="string">6.4.3  </i>
  <i name="subversion" type="string">19Mar24 (build Oct  2 2024 09:01:45) complex                          parallel </i>
  <i name="platform" type="string">LinuxGNU </i>
  <i name="date" type="string">2025 02 17 </i>
  <i name="time" type="string">17:12:09 </i>
 </generator>
 <incar>
  <i type="string" name="PREC">Accurate</i>
  <i type="string" name="ALGO">Fast</i>
  <i type="int" name="ICHARG">     2</i>
  <i type="int" name="IBRION">    -1</i>
  <i name="EDIFF">      0.00010000</i>
  <i name="EDIFFG">     -0.03000000</i>
  <i type="int" name="ISYM">     0</i>
  <i name="ENCUT">    400.00000000</i>
  <i type="string" name="LREAL">Auto</i>
  <i type="int" name="ISMEAR">     1</i>
  <i name="SIGMA">      0.10000000</i>
  <i type="logical" name="LWAVE"> F  </i>
  <i type="logical" name="LCHARG"> F  </i>
  <i type="string" name="GGA">PE</i>
  <i type="logical" name="LDIPOL"> T  </i>
  <i type="int" name="IDIPOL">     3</i>
 </incar>
 <primitive_cell>
  <structure name="primitive_cell" >
   <crystal>
    <varray name="basis" >
     <v>       8.80347943       0.00000000       0.00000000 </v>
     <v>       4.40173971       7.62403682       0.00000000 </v>
     <v>       0.00000000       0.00000000      23.18801085 </v>
    </varray>
    <i name="volume">   1556.33410245 </i>
    <varray name="rec_basis" >
     <v>       0.11359145      -0.06558205       0.00000000 </v>
     <v>       0.00000000       0.13116411       0.00000000 </v>
     <v>       0.00000000       0.00000000       0.04312573 </v>
    </varray>
   </crystal>
   <varray name="positions" >
    <v>       0.00000000       0.00000000       0.00000000 </v>
    <v>       0.33333333       0.00000000       0.00000000 </v>
    <v>       0.66666667       0.00000000       0.00000000 </v>
    <v>       0.00000000       0.33333333       0.00000000 </v>
    <v>       0.33333333       0.33333333       0.00000000 </v>
    <v>       0.66666667       0.33333333       0.00000000 </v>
    <v>       0.00000000       0.66666667       0.00000000 </v>
    <v>       0.33333333       0.66666667       0.00000000 </v>
    <v>       0.66666667       0.66666667       0.00000000 </v>
    <v>       0.11111111       0.11111111       0.10332942 </v>
    <v>       0.44444444       0.11111111       0.10332942 </v>
    <v>       0.77777778       0.11111111       0.10332942 </v>
    <v>       0.11111111       0.44444444       0.10332942 </v>
    <v>       0.44444444       0.44444444       0.10332942 </v>
    <v>       0.77777778       0.44444444       0.10332942 </v>
    <v>       0.11111111       0.77777778       0.10332942 </v>
    <v>       0.44444444       0.77777778       0.10332942 </v>
    <v>       0.77777778       0.77777778       0.10332942 </v>
    <v>       0.89098493       0.22117420       0.20810853 </v>
    <v>       0.22117429       0.22117409       0.20810861 </v>
    <v>       0.55651462       0.22030101       0.20526590 </v>
    <v>       0.89048055       0.55237209       0.20679379 </v>
    <v>       0.22030092       0.55651770       0.20526593 </v>
    <v>       0.55651772       0.55651469       0.20526591 </v>
    <v>       0.89048056       0.89048051       0.20679374 </v>
    <v>       0.22117429       0.89098500       0.20810853 </v>
    <v>       0.55237247       0.89048048       0.20679375 </v>
    <v>       0.98965624       0.98965637       0.31375486 </v>
    <v>       0.35402167       0.98965551       0.31375511 </v>
    <v>       0.66727011       0.99879369       0.31002356 </v>
    <v>       0.98965537       0.35402172       0.31375510 </v>
    <v>       0.33533816       0.33533809       0.30835714 </v>
    <v>       0.66265653       0.33533825       0.30835714 </v>
    <v>       0.99879388       0.66726992       0.31002358 </v>
    <v>       0.33533787       0.66265694       0.30835720 </v>
    <v>       0.66726966       0.66726987       0.31002350 </v>
    <v>       0.11111136       0.11111142       0.36037678 </v>
   </varray>
  </structure>
  <varray name="primitive_index" >
   <v type="int" >        1 </v>
   <v type="int" >        2 </v>
   <v type="int" >        3 </v>
   <v type="int" >        4 </v>
   <v type="int" >        5 </v>
   <v type="int" >        6 </v>
   <v type="int" >        7 </v>
   <v type="int" >        8 </v>
   <v type="int" >        9 </v>
   <v type="int" >       10 </v>
   <v type="int" >       11 </v>
   <v type="int" >       12 </v>
   <v type="int" >       13 </v>
   <v type="int" >       14 </v>
   <v type="int" >       15 </v>
   <v type="int" >       16 </v>
   <v type="int" >       17 </v>
   <v type="int" >       18 </v>
   <v type="int" >       19 </v>
   <v type="int" >       20 </v>
   <v type="int" >       21 </v>
   <v type="int" >       22 </v>
   <v type="int" >       23 </v>
   <v type="int" >       24 </v>
   <v type="int" >       25 </v>
   <v type="int" >       26 </v>
   <v type="int" >       27 </v>
   <v type="int" >       28 </v>
   <v type="int" >       29 </v>
   <v type="int" >       30 </v>
   <v type="int" >       31 </v>
   <v type="int" >       32 </v>
   <v type="int" >       33 </v>
   <v type="int" >       34 </v>
   <v type="int" >       35 </v>
   <v type="int" >       36 </v>
   <v type="int" >       37 </v>
  </varray>
 </primitive_cell>
 <kpoints>
  <generation param="Monkhorst-Pack">
   <v type="int" name="divisions">       2        2        1 </v>
   <v name="usershift">      0.00000000       0.00000000       0.00000000 </v>
   <v name="genvec1">      0.50000000       0.00000000       0.00000000 </v>
   <v name="genvec2">      0.00000000       0.50000000       0.00000000 </v>
   <v name="genvec3">      0.00000000       0.00000000       1.00000000 </v>
   <v name="shift">      0.50000000       0.50000000       0.00000000 </v>
  </generation>
  <varray name="kpointlist" >
   <v>       0.25000000       0.25000000       0.00000000 </v>
   <v>       0.00000000       0.25000000       0.00000000 </v>
   <v>      -0.25000000       0.00000000       0.00000000 </v>
   <v>      -0.25000000       0.25000000       0.00000000 </v>
   <v>       0.50000000      -0.25000000       0.00000000 </v>
   <v>      -0.25000000       0.50000000       0.00000000 </v>
  </varray>
  <varray name="weights" >
   <v>       0.16666667 </v>
   <v>       0.16666667 </v>
   <v>       0.16666667 </v>
   <v>       0.16666667 </v>
   <v>       0.16666667 </v>
   <v>       0.16666667 </v>
  </varray>
 </kpoints>
 <parameters>
  <separator name="general" >
   <i type="string" name="SYSTEM">unknown system</i>
   <i type="logical" name="LCOMPAT"> F  </i>
  </separator>
  <separator name="electronic" >
   <i type="string" name="PREC">accura</i>
   <i name="ENMAX">    400.00000000</i>
   <i name="ENAUG">    605.39200000</i>
   <i name="EDIFF">      0.00010000</i>
   <i type="int" name="IALGO">    68</i>
   <i type="int" name="IWAVPR">    10</i>
   <i type="int" name="NBANDS">   242</i>
   <i type="int" name="NBANDSLOW">    -1</i>
   <i type="int" name="NBANDSHIGH">    -1</i>
   <i name="NELECT">    402.00000000</i>
   <i type="int" name="TURBO">     0</i>
   <i type="int" name="IRESTART">     0</i>
   <i type="int" name="NREBOOT">     0</i>
   <i type="int" name="NMIN">     0</i>
   <i name="EREF">      0.00000000</i>
   <separator name="electronic smearing" >
    <i type="int" name="ISMEAR">     1</i>
    <i name="SIGMA">      0.10000000</i>
    <i name="KSPACING">      0.50000000</i>
    <i type="logical" name="KGAMMA"> T  </i>
    <i type="logical" name="KBLOWUP"> T  </i>
   </separator>
   <separator name="electronic projectors" >
    <i type="logical" name="LREAL"> T  </i>
    <v name="ROPT">     -0.00025000     -0.00025000</v>
    <i type="int" name="LMAXPAW">  -100</i>
    <i type="int" name="LMAXMIX">     2</i>
    <i type="logical" name="NLSPLINE"> F  </i>
   </separator>
   <separator name="electronic startup" >
    <i type="int" name="ISTART">     0</i>
    <i type="int" name="ICHARG">     2</i>
    <i type="int" name="INIWAV">     1</i>
   </separator>
   <separator name="electronic spin" >
    <i type="int" name="ISPIN">     1</i>
    <i type="logical" name="LNONCOLLINEAR"> F  </i>
    <v name="MAGMOM">      1.00000000      1.00000000      1.00000000      1.00000000      1.00000000      1.00000000      1.00000000      1.00000000      1.00000000      1.00000000      1.00000000      1.00000000      1.00000000      1.00000000      1.00000000      1.00000000      1.00000000      1.00000000      1.00000000      1.00000000
      1.00000000      1.00000000      1.00000000      1.00000000      1.00000000      1.00000000      1.00000000      1.00000000      1.00000000      1.00000000      1.00000000      1.00000000      1.00000000      1.00000000      1.00000000      1.00000000      1.00000000</v>
    <i name="NUPDOWN">     -1.00000000</i>
    <i type="logical" name="LSORBIT"> F  </i>
    <v name="SAXIS">      0.00000000      0.00000000      1.00000000</v>
    <i type="logical" name="LSPIRAL"> F  </i>
    <v name="QSPIRAL">      0.00000000      0.00000000      0.00000000</v>
    <i type="logical" name="LZEROZ"> F  </i>
   </separator>
   <separator name="electronic exchange-correlation" >
    <i type="logical" name="LASPH"> F  </i>
   </separator>
   <separator name="electronic convergence" >
    <i type="int" name="NELM">    60</i>
    <i type="int" name="NELMDL">     0</i>
    <i type="int" name="NELMIN">     2</i>
    <i name="ENINI">    400.00000000</i>
    <separator name="electronic convergence detail" >
     <i type="logical" name="LDIAG"> T  </i>
     <i type="logical" name="LSUBROT"> F  </i>
     <i name="WEIMIN">      0.00000000</i>
     <i name="EBREAK">      0.00000010</i>
     <i name="DEPER">      0.30000000</i>
     <i type="int" name="NRMM">     4</i>
     <i name="TIME">      0.40000000</i>
    </separator>
   </separator>
   <separator name="electronic mixer" >
    <i name="AMIX">      0.40000000</i>
    <i name="BMIX">      1.00000000</i>
    <i name="AMIN">      0.10000000</i>
    <i name="AMIX_MAG">      1.60000000</i>
    <i name="BMIX_MAG">      1.00000000</i>
    <separator name="electronic mixer details" >
     <i type="int" name="IMIX">     4</i>
     <i type="logical" name="MIXFIRST"> F  </i>
     <i type="int" name="MAXMIX">   -45</i>
     <i name="WC">    100.00000000</i>
     <i type="int" name="INIMIX">     1</i>
     <i type="int" name="MIXPRE">     1</i>
     <i type="int" name="MREMOVE">     5</i>
    </separator>
   </separator>
   <separator name="electronic dipolcorrection" >
    <i type="logical" name="LDIPOL"> T  </i>
    <i type="logical" name="LMONO"> F  </i>
    <i type="int" name="IDIPOL">     3</i>
    <i name="EPSILON">      1.00000000</i>
    <v name="DIPOL">   -100.00000000   -100.00000000   -100.00000000</v>
    <i name="EFIELD">      0.00000000</i>
    <i type="logical" name="LVACPOTAV"> F  </i>
   </separator>
  </separator>
  <separator name="grids" >
   <i type="int" name="NGX">    60</i>
   <i type="int" name="NGY">    60</i>
   <i type="int" name="NGZ">   160</i>
   <i type="int" name="NGXF">   120</i>
   <i type="int" name="NGYF">   120</i>
   <i type="int" name="NGZF">   320</i>
   <i type="logical" name="ADDGRID"> F  </i>
  </separator>
  <separator name="ionic" >
   <i type="int" name="NSW">     0</i>
   <i type="int" name="IBRION">    -1</i>
   <i type="int" name="MDALGO">     0</i>
   <i type="int" name="ISIF">     2</i>
   <i name="PSTRESS">      0.00000000</i>
   <i name="EDIFFG">     -0.03000000</i>
   <i type="int" name="NFREE">     0</i>
   <i name="POTIM">      0.50000000</i>
   <i name="SMASS">     -3.00000000</i>
   <i name="SCALEE">      1.00000000</i>
  </separator>
  <separator name="ionic md" >
   <i name="TEBEG">      0.00010000</i>
   <i name="TEEND">      0.00010000</i>
   <i type="int" name="NBLOCK">     1</i>
   <i type="int" name="KBLOCK">     1</i>
   <i type="int" name="NPACO">   256</i>
   <i name="APACO">     10.00000000</i>
  </separator>
  <separator name="symmetry" >
   <i type="int" name="ISYM">     0</i>
   <i name="SYMPREC">      0.00001000</i>
  </separator>
  <separator name="dos" >
   <i type="int" name="LORBIT">     0</i>
   <v name="RWIGS">     -1.00000000     -1.00000000</v>
   <i type="int" name="NEDOS">   301</i>
   <i name="EMIN">     10.00000000</i>
   <i name="EMAX">    -10.00000000</i>
   <i name="EFERMI">      0.00000000</i>
  </separator>
  <separator name="writing" >
   <i type="int" name="NWRITE">     2</i>
   <i type="logical" name="LWAVE"> F  </i>
   <i type="logical" name="LDOWNSAMPLE"> F  </i>
   <i type="logical" name="LCHARG"> F  </i>
   <i type="logical" name="LPARD"> F  </i>
   <i type="logical" name="LVTOT"> F  </i>
   <i type="logical" name="LVHAR"> F  </i>
   <i type="logical" name="LELF"> F  </i>
   <i type="logical" name="LOPTICS"> F  </i>
   <v name="STM">      0.00000000      0.00000000      0.00000000      0.00000000      0.00000000      0.00000000      0.00000000</v>
  </separator>
  <separator name="performance" >
   <i type="int" name="NPAR">     2</i>
   <i type="int" name="NSIM">     4</i>
   <i type="int" name="NBLK">    -1</i>
   <i type="logical" name="LPLANE"> T  </i>
   <i type="logical" name="LSCALAPACK"> T  </i>
   <i type="logical" name="LSCAAWARE"> F  </i>
   <i type="logical" name="LSCALU"> F  </i>
   <i type="logical" name="LASYNC"> F  </i>
   <i type="logical" name="LORBITALREAL"> F  </i>
  </separator>
  <separator name="miscellaneous" >
   <i type="int" name="IDIOT">     3</i>
   <i type="int" name="PHON_NSTRUCT">    -1</i>
   <i type="logical" name="LMUSIC"> F  </i>
   <v name="POMASS">    196.96600000     16.00000000</v>
   <v name="DARWINR">      0.00000000      0.00000000</v>
   <v name="DARWINV">      1.00000000      1.00000000</v>
   <i type="logical" name="LCORR"> T  </i>
  </separator>
  <i type="logical" name="GGA_COMPAT"> T  </i>
  <i type="logical" name="LBERRY"> F  </i>
  <i type="int" name="ICORELEVEL">     0</i>
  <i type="logical" name="LDAU"> F  </i>
  <i type="int" name="I_CONSTRAINED_M">     0</i>
  <separator name="electronic exchange-correlation" >
   <i type="string" name="GGA    ">PE</i>
   <i type="string" name="XC_C">1</i>
   <i type="int" name="VOSKOWN">     0</i>
   <i type="logical" name="LHFCALC"> F  </i>
   <i type="string" name="PRECFOCK"></i>
   <i type="logical" name="LSYMGRAD"> F  </i>
   <i type="logical" name="LHFONE"> F  </i>
   <i type="logical" name="LRHFCALC"> F  </i>
   <i type="logical" name="LTHOMAS"> F  </i>
   <i type="logical" name="LMODELHF"> F  </i>
   <i type="logical" name="LFOCKACE"> F  </i>
   <i name="ENCUT4O">     -1.00000000</i>
   <i type="int" name="EXXOEP">     0</i>
   <i type="int" name="FOURORBIT">     0</i>
   <i name="AEXX">      0.00000000</i>
   <i name="HFALPHA">      0.00000000</i>
   <i name="MCALPHA">      0.00000000</i>
   <i name="ALDAX">      1.00000000</i>
   <i name="AGGAX">      1.00000000</i>
   <i name="AMGGAX">      1.00000000</i>
   <i name="ALDAC">      1.00000000</i>
   <i name="AGGAC">      1.00000000</i>
   <i name="AMGGAC">      1.00000000</i>
   <i type="int" name="NKREDX">     1</i>
   <i type="int" name="NKREDY">     1</i>
   <i type="int" name="NKREDZ">     1</i>
   <i type="logical" name="SHIFTRED"> F  </i>
   <i type="logical" name="ODDONLY"> F  </i>
   <i type="logical" name="EVENONLY"> F  </i>
   <i type="int" name="LMAXFOCK">     0</i>
   <i type="int" name="NMAXFOCKAE">     0</i>
   <i type="logical" name="LFOCKAEDFT"> F  </i>
   <i name="HFSCREEN">      0.00000000</i>
   <i name="HFSCREENC">      0.00000000</i>
   <i type="int" name="NBANDSGWLOW">     0</i>
  </separator>
  <separator name="vdW DFT" >
   <i type="logical" name="LUSE_VDW"> F  </i>
   <i type="int" name="IVDW_NL">    -1</i>
   <i type="logical" name="LSPIN_VDW"> F  </i>
   <i name="ZAB_VDW">     -0.84910000</i>
   <i name="GAMMA_VDW">      1.39626340</i>
   <i name="ALPHA_VDW">      0.00000000</i>
   <i name="PARAM1">      0.12340000</i>
   <i name="PARAM2">      1.00000000</i>
   <i name="BPARAM">      6.30000000</i>
   <i name="CPARAM">      0.00930000</i>
  </separator>
  <separator name="model GW" >
   <i type="int" name="MODEL_GW">     0</i>
   <i name="MODEL_EPS0">     25.23785031</i>
   <i name="MODEL_ALPHA">      1.00000000</i>
  </separator>
  <separator name="linear response parameters" >
   <i type="logical" name="LEPSILON"> F  </i>
   <i type="logical" name="LRPA"> F  </i>
   <i type="logical" name="LNABLA"> F  </i>
   <i type="logical" name="LVEL"> F  </i>
   <i name="CSHIFT">      0.10000000</i>
   <i name="OMEGAMAX">     -1.00000000</i>
   <i name="DEG_THRESHOLD">      0.00200000</i>
   <i name="RTIME">     -0.10000000</i>
   <i name="WPLASMAI">      0.00000000</i>
   <v name="DFIELD">      0.00000000      0.00000000      0.00000000</v>
   <v name="WPLASMA">      0.00000000      0.00000000      0.00000000      0.00000000      0.00000000      0.00000000      0.00000000      0.00000000      0.00000000</v>
  </separator>
  <separator name="orbital magnetization" >
   <i type="logical" name="NUCIND"> F  </i>
   <v name="MAGPOS">      0.00000000      0.00000000      0.00000000</v>
   <i type="logical" name="LNICSALL"> T  </i>
   <i type="logical" name="ORBITALMAG"> F  </i>
   <i type="logical" name="LMAGBLOCH"> F  </i>
   <i type="logical" name="LCHIMAG"> F  </i>
   <i type="logical" name="LGAUGE"> T  </i>
   <i type="int" name="MAGATOM">     0</i>
   <v name="MAGDIPOL">      0.00000000      0.00000000      0.00000000</v>
   <v name="AVECCONST">      0.00000000      0.00000000      0.00000000</v>
  </separator>
  <separator name="response functions" >
   <i type="logical" name="LALL_IN_ONE"> F  </i>
   <i type="int" name="IALL_IN_ONE">    -1</i>
   <i type="int" name="NBANDS_WAVE">    -1</i>
   <i type="logical" name="LFINITE_TEMPERATURE"> F  </i>
   <i type="logical" name="LADDER"> F  </i>
   <i type="logical" name="LRPAFORCE"> F  </i>
   <i type="logical" name="LFXC"> F  </i>
   <i type="logical" name="LHARTREE"> T  </i>
   <i type="int" name="IBSE">     0</i>
   <v type="int" name="KPOINT">    -1     0     0     0</v>
   <i type="logical" name="LTCTC"> F  </i>
   <i type="logical" name="LTCTE"> F  </i>
   <i type="logical" name="LTETE"> F  </i>
   <i type="logical" name="LTRIPLET"> F  </i>
   <i type="logical" name="LFXCEPS"> F  </i>
   <i type="logical" name="LFXHEG"> F  </i>
   <i type="int" name="NATURALO">     2</i>
   <i type="logical" name="LHOLEGF"> F  </i>
   <i type="logical" name="L2ORDER"> F  </i>
   <i type="logical" name="LDMP1"> F  </i>
   <i type="logical" name="LMP2LT"> F  </i>
   <i type="logical" name="LSMP2LT"> F  </i>
   <i type="logical" name="LGWLF"> F  </i>
   <i name="ENCUTGW">     -1.60000002</i>
   <i name="ENCUTGWSOFT">     -1.60000002</i>
   <i name="ENCUTLF">     -1.00000000</i>
   <i type="logical" name="ESF_SPLINES"> F  </i>
   <i name="ESF_CONV">      0.01000000</i>
   <i type="int" name="ESF_NINTER">    15</i>
   <i type="int" name="LMAXMP2">    -1</i>
   <i name="SCISSOR">      0.00000000</i>
   <i type="int" name="NOMEGA">     0</i>
   <i type="int" name="NOMEGAR">     0</i>
   <i type="int" name="NBANDSGW">    -1</i>
   <i type="int" name="NBANDSO">    -1</i>
   <i type="int" name="NBANDSV">    -1</i>
   <i type="int" name="NELMGW">     1</i>
   <i type="int" name="NELMHF">     1</i>
   <i type="int" name="DIM">     3</i>
   <i type="int" name="IESPILON">     4</i>
   <i type="int" name="ANTIRES">     0</i>
   <i name="OMEGAMAX">    -30.00000000</i>
   <i name="OMEGAMIN">    -30.00000000</i>
   <i name="OMEGATL">   -200.00000000</i>
   <i type="int" name="OMEGAGRID">     0</i>
   <i name="CSHIFT">     -0.10000000</i>
   <i type="logical" name="LSELFENERGY"> F  </i>
   <i type="logical" name="LSPECTRAL"> F  </i>
   <i type="logical" name="LSPECTRALGW"> F  </i>
   <i type="logical" name="LSINGLES"> F  </i>
   <i type="logical" name="LFERMIGW"> F  </i>
   <i type="logical" name="ODDONLYGW"> F  </i>
   <i type="logical" name="EVENONLYGW"> F  </i>
   <i type="int" name="NKREDLFX">     1</i>
   <i type="int" name="NKREDLFY">     1</i>
   <i type="int" name="NKREDLFZ">     1</i>
   <i type="int" name="MAXMEM">  2800</i>
   <i type="int" name="TELESCOPE">     0</i>
   <i type="int" name="NTAUPAR">    -1</i>
   <i type="int" name="NOMEGAPAR">    -1</i>
   <i name="DAMP_NEWTON">      0.80000001</i>
   <i name="LAMBDA">      1.00000000</i>
  </separator>
  <separator name="External order field" >
   <i name="OFIELD_KAPPA">      0.00000000</i>
   <v name="OFIELD_K">      0.00000000      0.00000000      0.00000000</v>
   <i name="OFIELD_Q6_NEAR">      0.00000000</i>
   <i name="OFIELD_Q6_FAR">      0.00000000</i>
   <i name="OFIELD_A">      0.00000000</i>
  </separator>
  <separator name="optional k-points parameters" >
   <i type="int" name="KPOINTS_OPT_MODE">     1</i>
   <i type="logical" name="LKPOINTS_OPT"> F  </i>
  </separator>
 </parameters>
 <atominfo>
  <atoms>      37 </atoms>
  <types>       2 </types>
  <array name="atoms" >
   <dimension dim="1">ion</dimension>
   <field type="string">element</field>
   <field type="int">atomtype</field>
   <set>
    <rc><c>Au</c><c>   1</c></rc>
    <rc><c>Au</c><c>   1</c></rc>
    <rc><c>Au</c><c>   1</c></rc>
    <rc><c>Au</c><c>   1</c></rc>
    <rc><c>Au</c><c>   1</c></rc>
    <rc><c>Au</c><c>   1</c></rc>
    <rc><c>Au</c><c>   1</c></rc>
    <rc><c>Au</c><c>   1</c></rc>
    <rc><c>Au</c><c>   1</c></rc>
    <rc><c>Au</c><c>   1</c></rc>
    <rc><c>Au</c><c>   1</c></rc>
    <rc><c>Au</c><c>   1</c></rc>
    <rc><c>Au</c><c>   1</c></rc>
    <rc><c>Au</c><c>   1</c></rc>
    <rc><c>Au</c><c>   1</c></rc>
    <rc><c>Au</c><c>   1</c></rc>
    <rc><c>Au</c><c>   1</c></rc>
    <rc><c>Au</c><c>   1</c></rc>
    <rc><c>Au</c><c>   1</c></rc>
    <rc><c>Au</c><c>   1</c></rc>
    <rc><c>Au</c><c>   1</c></rc>
    <rc><c>Au</c><c>   1</c></rc>
    <rc><c>Au</c><c>   1</c></rc>
    <rc><c>Au</c><c>   1</c></rc>
    <rc><c>Au</c><c>   1</c></rc>
    <rc><c>Au</c><c>   1</c></rc>
    <rc><c>Au</c><c>   1</c></rc>
    <rc><c>Au</c><c>   1</c></rc>
    <rc><c>Au</c><c>   1</c></rc>
    <rc><c>Au</c><c>   1</c></rc>
    <rc><c>Au</c><c>   1</c></rc>
    <rc><c>Au</c><c>   1</c></rc>
    <rc><c>Au</c><c>   1</c></rc>
    <rc><c>Au</c><c>   1</c></rc>
    <rc><c>Au</c><c>   1</c></rc>
    <rc><c>Au</c><c>   1</c></rc>
    <rc><c>O </c><c>   2</c></rc>
   </set>
  </array>
  <array name="atomtypes" >
   <dimension dim="1">type</dimension>
   <field type="int">atomspertype</field>
   <field type="string">element</field>
   <field>mass</field>
   <field>valence</field>
   <field type="string">pseudopotential</field>
   <set>
    <rc><c>  36</c><c>Au</c><c>    196.96600000</c><c>     11.00000000</c><c>  PAW_PBE Au 04Oct2007                  </c></rc>
    <rc><c>   1</c><c>O </c><c>     16.00000000</c><c>      6.00000000</c><c>  PAW_PBE O 08Apr2002                   </c></rc>
   </set>
  </array>
 </atominfo>
 <structure name="initialpos" >
  <crystal>
   <varray name="basis" >
    <v>       8.80347943       0.00000000       0.00000000 </v>
    <v>       4.40173971       7.62403682       0.00000000 </v>
    <v>       0.00000000       0.00000000      23.18801085 </v>
   </varray>
   <i name="volume">   1556.33410245 </i>
   <varray name="rec_basis" >
    <v>       0.11359145      -0.06558205       0.00000000 </v>
    <v>       0.00000000       0.13116411       0.00000000 </v>
    <v>       0.00000000       0.00000000       0.04312573 </v>
   </varray>
  </crystal>
  <varray name="positions" >
   <v>       0.00000000       0.00000000       0.00000000 </v>
   <v>       0.33333333       0.00000000       0.00000000 </v>
   <v>       0.66666667       0.00000000       0.00000000 </v>
   <v>       0.00000000       0.33333333       0.00000000 </v>
   <v>       0.33333333       0.33333333       0.00000000 </v>
   <v>       0.66666667       0.33333333       0.00000000 </v>
   <v>       0.00000000       0.66666667       0.00000000 </v>
   <v>       0.33333333       0.66666667       0.00000000 </v>
   <v>       0.66666667       0.66666667       0.00000000 </v>
   <v>       0.11111111       0.11111111       0.10332942 </v>
   <v>       0.44444444       0.11111111       0.10332942 </v>
   <v>       0.77777778       0.11111111       0.10332942 </v>
   <v>       0.11111111       0.44444444       0.10332942 </v>
   <v>       0.44444444       0.44444444       0.10332942 </v>
   <v>       0.77777778       0.44444444       0.10332942 </v>
   <v>       0.11111111       0.77777778       0.10332942 </v>
   <v>       0.44444444       0.77777778       0.10332942 </v>
   <v>       0.77777778       0.77777778       0.10332942 </v>
   <v>       0.89098493       0.22117420       0.20810853 </v>
   <v>       0.22117429       0.22117409       0.20810861 </v>
   <v>       0.55651462       0.22030101       0.20526590 </v>
   <v>       0.89048055       0.55237209       0.20679379 </v>
   <v>       0.22030092       0.55651770       0.20526593 </v>
   <v>       0.55651772       0.55651469       0.20526591 </v>
   <v>       0.89048056       0.89048051       0.20679374 </v>
   <v>       0.22117429       0.89098500       0.20810853 </v>
   <v>       0.55237247       0.89048048       0.20679375 </v>
   <v>       0.98965624       0.98965637       0.31375486 </v>
   <v>       0.35402167       0.98965551       0.31375511 </v>
   <v>       0.66727011       0.99879369       0.31002356 </v>
   <v>       0.98965537       0.35402172       0.31375510 </v>
   <v>       0.33533816       0.33533809       0.30835714 </v>
   <v>       0.66265653       0.33533825       0.30835714 </v>
   <v>       0.99879388       0.66726992       0.31002358 </v>
   <v>       0.33533787       0.66265694       0.30835720 </v>
   <v>       0.66726966       0.66726987       0.31002350 </v>
   <v>       0.11111136       0.11111142       0.36037678 </v>
  </varray>
  <varray name="selective"  type="logical" >
   <v type="logical" >  F  F  F </v>
   <v type="logical" >  F  F  F </v>
   <v type="logical" >  F  F  F </v>
   <v type="logical" >  F  F  F </v>
   <v type="logical" >  F  F  F </v>
   <v type="logical" >  F  F  F </v>
   <v type="logical" >  F  F  F </v>
   <v type="logical" >  F  F  F </v>
   <v type="logical" >  F  F  F </v>
   <v type="logical" >  F  F  F </v>
   <v type="logical" >  F  F  F </v>
   <v type="logical" >  F  F  F </v>
   <v type="logical" >  F  F  F </v>
   <v type="logical" >  F  F  F </v>
   <v type="logical" >  F  F  F </v>
   <v type="logical" >  F  F  F </v>
   <v type="logical" >  F  F  F </v>
   <v type="logical" >  F  F  F </v>
   <v type="logical" >  T  T  T </v>
   <v type="logical" >  T  T  T </v>
   <v type="logical" >  T  T  T </v>
   <v type="logical" >  T  T  T </v>
   <v type="logical" >  T  T  T </v>
   <v type="logical" >  T  T  T </v>
   <v type="logical" >  T  T  T </v>
   <v type="logical" >  T  T  T </v>
   <v type="logical" >  T  T  T </v>
   <v type="logical" >  T  T  T </v>
   <v type="logical" >  T  T  T </v>
   <v type="logical" >  T  T  T </v>
   <v type="logical" >  T  T  T </v>
   <v type="logical" >  T  T  T </v>
   <v type="logical" >  T  T  T </v>
   <v type="logical" >  T  T  T </v>
   <v type="logical" >  T  T  T </v>
   <v type="logical" >  T  T  T </v>
   <v type="logical" >  T  T  T </v>
  </varray>
  <nose>
   <v>      -3.00000000       0.00000000       0.00010000       0.00010000 </v>
  </nose>
 </structure>
 <calculation>
  <scstep>
   <time name="dav">    4.02    4.05</time>
   <time name="total">    4.10    4.13</time>
   <dipole>
    <v name="dipole">      0.00000000       0.00000000       0.00010492 </v>
    <i name="Tr[quadrupol]">  -4955.14743984 </i>
    <i name="Echarged">      0.00000000 </i>
    <i name="Edipol_quadrupol">      0.00000000 </i>
    <i name="Eion">      0.00000000 </i>
   </dipole>
   <energy>
    <i name="alphaZ">    990.63658794 </i>
    <i name="ewald"> 112915.33392152 </i>
    <i name="hartreedc">-148233.38218335 </i>
    <i name="XCdc">    577.61684822 </i>
    <i name="pawpsdc">  31814.05959759 </i>
    <i name="pawaedc"> -30984.71300122 </i>
    <i name="eentropy">     -0.01079358 </i>
    <i name="bandstr">   1624.10536253 </i>
    <i name="atom">  33771.16187166 </i>
    <i name="e_fr_energy">   2474.80821130 </i>
    <i name="e_wo_entrp">   2474.81900488 </i>
    <i name="e_0_energy">   2474.81180916 </i>
   </energy>
  </scstep>
  <scstep>
   <time name="dav">    4.52    4.54</time>
   <time name="total">    4.52    4.55</time>
   <dipole>
    <v name="dipole">      0.00000000       0.00000000       0.00010492 </v>
    <i name="Tr[quadrupol]">  -4955.14743984 </i>
    <i name="Echarged">      0.00000000 </i>
    <i name="Edipol_quadrupol">      0.00000000 </i>
    <i name="Eion">      0.00000000 </i>
   </dipole>
   <energy>
    <i name="e_fr_energy">     34.41950920 </i>
    <i name="e_wo_entrp">     34.42284799 </i>
    <i name="e_0_energy">     34.42062213 </i>
   </energy>
  </scstep>
  <scstep>
   <time name="dav">    4.58    4.61</time>
   <time name="total">    4.58    4.61</time>
   <dipole>
    <v name="dipole">      0.00000000       0.00000000       0.00010492 </v>
    <i name="Tr[quadrupol]">  -4955.14743984 </i>
    <i name="Echarged">      0.00000000 </i>
    <i name="Edipol_quadrupol">      0.00000000 </i>
    <i name="Eion">      0.00000000 </i>
   </dipole>
   <energy>
    <i name="e_fr_energy">   -122.54044173 </i>
    <i name="e_wo_entrp">   -122.52780229 </i>
    <i name="e_0_energy">   -122.53622859 </i>
   </energy>
  </scstep>
  <scstep>
   <time name="dav">    4.52    4.55</time>
   <time name="total">    4.52    4.55</time>
   <dipole>
    <v name="dipole">      0.00000000       0.00000000       0.00010492 </v>
    <i name="Tr[quadrupol]">  -4955.14743984 </i>
    <i name="Echarged">      0.00000000 </i>
    <i name="Edipol_quadrupol">      0.00000000 </i>
    <i name="Eion">      0.00000000 </i>
   </dipole>
   <energy>
    <i name="e_fr_energy">   -126.83668311 </i>
    <i name="e_wo_entrp">   -126.82440664 </i>
    <i name="e_0_energy">   -126.83259095 </i>
   </energy>
  </scstep>
  <scstep>
   <time name="dav">    4.70    4.73</time>
   <time name="total">    4.92    4.94</time>
   <dipole>
    <v name="dipole">      0.00000000       0.00000000       0.00010492 </v>
    <i name="Tr[quadrupol]">  -4955.14743984 </i>
    <i name="Echarged">      0.00000000 </i>
    <i name="Edipol_quadrupol">      0.00000000 </i>
    <i name="Eion">      0.00000000 </i>
   </dipole>
   <energy>
    <i name="e_fr_energy">   -126.99053749 </i>
    <i name="e_wo_entrp">   -126.97823426 </i>
    <i name="e_0_energy">   -126.98643641 </i>
   </energy>
  </scstep>
  <scstep>
   <time name="diag">    0.73    0.74</time>
   <time name="diis">    2.59    2.61</time>
   <time name="orth">    0.11    0.11</time>
   <time name="total">    3.71    3.73</time>
   <dipole>
    <v name="dipole">      0.00000000       0.00000000       0.54082541 </v>
    <i name="Tr[quadrupol]">  -4951.69666492 </i>
    <i name="Echarged">      0.00000000 </i>
    <i name="Edipol_quadrupol">      0.00000000 </i>
    <i name="Eion">      0.00000000 </i>
   </dipole>
   <energy>
    <i name="e_fr_energy">   -120.17121912 </i>
    <i name="e_wo_entrp">   -120.19375712 </i>
    <i name="e_0_energy">   -120.17873178 </i>
   </energy>
  </scstep>
  <scstep>
   <time name="diag">    0.72    0.73</time>
   <time name="diis">    2.76    2.78</time>
   <time name="orth">    0.11    0.11</time>
   <time name="total">    3.86    3.88</time>
   <dipole>
    <v name="dipole">      0.00000000       0.00000000      -1.47433745 </v>
    <i name="Tr[quadrupol]">  -4949.67012916 </i>
    <i name="Echarged">      0.00000000 </i>
    <i name="Edipol_quadrupol">      0.00000000 </i>
    <i name="Eion">      0.00000000 </i>
   </dipole>
   <energy>
    <i name="e_fr_energy">   -134.50272386 </i>
    <i name="e_wo_entrp">   -134.49336552 </i>
    <i name="e_0_energy">   -134.49960441 </i>
   </energy>
  </scstep>
  <scstep>
   <time name="diag">    0.71    0.71</time>
   <time name="diis">    2.80    2.82</time>
   <time name="orth">    0.10    0.10</time>
   <time name="total">    3.87    3.90</time>
   <dipole>
    <v name="dipole">      0.00000000       0.00000000       1.58196629 </v>
    <i name="Tr[quadrupol]">  -4957.37144449 </i>
    <i name="Echarged">      0.00000000 </i>
    <i name="Edipol_quadrupol">      0.00000000 </i>
    <i name="Eion">      0.00000000 </i>
   </dipole>
   <energy>
    <i name="e_fr_energy">   -133.72189898 </i>
    <i name="e_wo_entrp">   -133.70294173 </i>
    <i name="e_0_energy">   -133.71557990 </i>
   </energy>
  </scstep>
  <scstep>
   <time name="diag">    0.71    0.71</time>
   <time name="diis">    2.66    2.68</time>
   <time name="orth">    0.10    0.10</time>
   <time name="total">    3.73    3.75</time>
   <dipole>
    <v name="dipole">      0.00000000       0.00000000      -0.18548442 </v>
    <i name="Tr[quadrupol]">  -4953.22665522 </i>
    <i name="Echarged">      0.00000000 </i>
    <i name="Edipol_quadrupol">      0.00000000 </i>
    <i name="Eion">      0.00000000 </i>
   </dipole>
   <energy>
    <i name="e_fr_energy">   -118.00636773 </i>
    <i name="e_wo_entrp">   -117.98904517 </i>
    <i name="e_0_energy">   -118.00059354 </i>
   </energy>
  </scstep>
  <scstep>
   <time name="diag">    0.70    0.72</time>
   <time name="diis">    2.67    2.68</time>
   <time name="orth">    0.10    0.10</time>
   <time name="total">    3.72    3.77</time>
   <dipole>
    <v name="dipole">      0.00000000       0.00000000       0.02448778 </v>
    <i name="Tr[quadrupol]">  -4950.31862810 </i>
    <i name="Echarged">      0.00000000 </i>
    <i name="Edipol_quadrupol">      0.00000000 </i>
    <i name="Eion">      0.00000000 </i>
   </dipole>
   <energy>
    <i name="e_fr_energy">   -115.40485864 </i>
    <i name="e_wo_entrp">   -115.37770200 </i>
    <i name="e_0_energy">   -115.39580642 </i>
   </energy>
  </scstep>
  <scstep>
   <time name="diag">    0.69    0.69</time>
   <time name="diis">    2.62    2.64</time>
   <time name="orth">    0.10    0.10</time>
   <time name="total">    3.67    3.69</time>
   <dipole>
    <v name="dipole">      0.00000000       0.00000000       0.11864928 </v>
    <i name="Tr[quadrupol]">  -4951.04607072 </i>
    <i name="Echarged">      0.00000000 </i>
    <i name="Edipol_quadrupol">      0.00000000 </i>
    <i name="Eion">      0.00000000 </i>
   </dipole>
   <energy>
    <i name="e_fr_energy">   -115.39605878 </i>
    <i name="e_wo_entrp">   -115.37717356 </i>
    <i name="e_0_energy">   -115.38976371 </i>
   </energy>
  </scstep>
  <scstep>
   <time name="diag">    0.68    0.69</time>
   <time name="diis">    2.57    2.58</time>
   <time name="orth">    0.10    0.10</time>
   <time name="total">    3.61    3.63</time>
   <dipole>
    <v name="dipole">      0.00000000       0.00000000       0.10563627 </v>
    <i name="Tr[quadrupol]">  -4951.84965415 </i>
    <i name="Echarged">      0.00000000 </i>
    <i name="Edipol_quadrupol">      0.00000000 </i>
    <i name="Eion">      0.00000000 </i>
   </dipole>
   <energy>
    <i name="e_fr_energy">   -115.29730959 </i>
    <i name="e_wo_entrp">   -115.28133040 </i>
    <i name="e_0_energy">   -115.29198320 </i>
   </energy>
  </scstep>
  <scstep>
   <time name="diag">    0.68    0.69</time>
   <time name="diis">    2.57    2.59</time>
   <time name="orth">    0.10    0.10</time>
   <time name="total">    3.61    3.63</time>
   <dipole>
    <v name="dipole">      0.00000000       0.00000000       0.10167216 </v>
    <i name="Tr[quadrupol]">  -4951.61038888 </i>
    <i name="Echarged">      0.00000000 </i>
    <i name="Edipol_quadrupol">      0.00000000 </i>
    <i name="Eion">      0.00000000 </i>
   </dipole>
   <energy>
    <i name="e_fr_energy">   -115.24410973 </i>
    <i name="e_wo_entrp">   -115.22079811 </i>
    <i name="e_0_energy">   -115.23633919 </i>
   </energy>
  </scstep>
  <scstep>
   <time name="diag">    0.67    0.68</time>
   <time name="diis">    2.59    2.61</time>
   <time name="orth">    0.10    0.10</time>
   <time name="total">    3.61    3.64</time>
   <dipole>
    <v name="dipole">      0.00000000       0.00000000       0.10343148 </v>
    <i name="Tr[quadrupol]">  -4951.42190077 </i>
    <i name="Echarged">      0.00000000 </i>
    <i name="Edipol_quadrupol">      0.00000000 </i>
    <i name="Eion">      0.00000000 </i>
   </dipole>
   <energy>
    <i name="e_fr_energy">   -115.20219445 </i>
    <i name="e_wo_entrp">   -115.17100886 </i>
    <i name="e_0_energy">   -115.19179926 </i>
   </energy>
  </scstep>
  <scstep>
   <time name="diag">    0.67    0.67</time>
   <time name="diis">    2.65    2.66</time>
   <time name="orth">    0.10    0.10</time>
   <time name="total">    3.66    3.68</time>
   <dipole>
    <v name="dipole">      0.00000000       0.00000000       0.10796072 </v>
    <i name="Tr[quadrupol]">  -4951.40433200 </i>
    <i name="Echarged">      0.00000000 </i>
    <i name="Edipol_quadrupol">      0.00000000 </i>
    <i name="Eion">      0.00000000 </i>
   </dipole>
   <energy>
    <i name="e_fr_energy">   -115.20058586 </i>
    <i name="e_wo_entrp">   -115.16794122 </i>
    <i name="e_0_energy">   -115.18970431 </i>
   </energy>
  </scstep>
  <scstep>
   <time name="diag">    0.67    0.67</time>
   <time name="diis">    2.52    2.53</time>
   <time name="orth">    0.10    0.10</time>
   <time name="total">    3.53    3.55</time>
   <dipole>
    <v name="dipole">      0.00000000       0.00000000       0.10248875 </v>
    <i name="Tr[quadrupol]">  -4951.46399706 </i>
    <i name="Echarged">      0.00000000 </i>
    <i name="Edipol_quadrupol">      0.00000000 </i>
    <i name="Eion">      0.00000000 </i>
   </dipole>
   <energy>
    <i name="e_fr_energy">   -115.20251292 </i>
    <i name="e_wo_entrp">   -115.17041124 </i>
    <i name="e_0_energy">   -115.19181236 </i>
   </energy>
  </scstep>
  <scstep>
   <time name="diag">    0.66    0.67</time>
   <time name="diis">    2.45    2.47</time>
   <time name="orth">    0.09    0.09</time>
   <time name="total">    3.45    3.48</time>
   <dipole>
    <v name="dipole">      0.00000000       0.00000000       0.10524955 </v>
    <i name="Tr[quadrupol]">  -4951.48462986 </i>
    <i name="Echarged">      0.00000000 </i>
    <i name="Edipol_quadrupol">      0.00000000 </i>
    <i name="Eion">      0.00000000 </i>
   </dipole>
   <energy>
    <i name="e_fr_energy">   -115.20282508 </i>
    <i name="e_wo_entrp">   -115.17014217 </i>
    <i name="e_0_energy">   -115.19193078 </i>
   </energy>
  </scstep>
  <scstep>
   <time name="diag">    0.66    0.66</time>
   <time name="diis">    1.70    1.71</time>
   <time name="orth">    0.10    0.10</time>
   <time name="total">    2.70    2.71</time>
   <dipole>
    <v name="dipole">      0.00000000       0.00000000       0.10614611 </v>
    <i name="Tr[quadrupol]">  -4951.49805567 </i>
    <i name="Echarged">      0.00000000 </i>
    <i name="Edipol_quadrupol">      0.00000000 </i>
    <i name="Eion">      0.00000000 </i>
   </dipole>
   <energy>
    <i name="e_fr_energy">   -115.20306081 </i>
    <i name="e_wo_entrp">   -115.17042721 </i>
    <i name="e_0_energy">   -115.19218294 </i>
   </energy>
  </scstep>
  <scstep>
   <time name="diag">    0.66    0.66</time>
   <time name="diis">    1.67    1.68</time>
   <time name="orth">    0.10    0.10</time>
   <time name="total">    2.67    2.68</time>
   <dipole>
    <v name="dipole">      0.00000000       0.00000000       0.10580658 </v>
    <i name="Tr[quadrupol]">  -4951.48400863 </i>
    <i name="Echarged">      0.00000000 </i>
    <i name="Edipol_quadrupol">      0.00000000 </i>
    <i name="Eion">      0.00000000 </i>
   </dipole>
   <energy>
    <i name="e_fr_energy">   -115.20355056 </i>
    <i name="e_wo_entrp">   -115.17093357 </i>
    <i name="e_0_energy">   -115.19267823 </i>
   </energy>
  </scstep>
  <scstep>
   <time name="diag">    0.65    0.65</time>
   <time name="diis">    1.49    1.50</time>
   <time name="orth">    0.09    0.09</time>
   <time name="total">    2.48    2.49</time>
   <dipole>
    <v name="dipole">      0.00000000       0.00000000       0.10414507 </v>
    <i name="Tr[quadrupol]">  -4951.34797504 </i>
    <i name="Echarged">      0.00000000 </i>
    <i name="Edipol_quadrupol">      0.00000000 </i>
    <i name="Eion">      0.00000000 </i>
   </dipole>
   <energy>
    <i name="e_fr_energy">   -115.20370179 </i>
    <i name="e_wo_entrp">   -115.17114635 </i>
    <i name="e_0_energy">   -115.19284998 </i>
   </energy>
  </scstep>
  <scstep>
   <time name="diag">    0.65    0.66</time>
   <time name="diis">    1.55    1.56</time>
   <time name="orth">    0.10    0.10</time>
   <time name="total">    2.54    2.56</time>
   <dipole>
    <v name="dipole">      0.00000000       0.00000000       0.10852750 </v>
    <i name="Tr[quadrupol]">  -4951.29565216 </i>
    <i name="Echarged">      0.00000000 </i>
    <i name="Edipol_quadrupol">      0.00000000 </i>
    <i name="Eion">      0.00000000 </i>
   </dipole>
   <energy>
    <i name="e_fr_energy">   -115.20384865 </i>
    <i name="e_wo_entrp">   -115.17116798 </i>
    <i name="e_0_energy">   -115.19295509 </i>
   </energy>
  </scstep>
  <scstep>
   <time name="diag">    0.64    0.65</time>
   <time name="diis">    1.09    1.10</time>
   <time name="orth">    0.09    0.09</time>
   <time name="total">    1.90    1.91</time>
   <dipole>
    <v name="dipole">      0.00000000       0.00000000       0.10893106 </v>
    <i name="Tr[quadrupol]">  -4951.27699867 </i>
    <i name="Echarged">      0.00000000 </i>
    <i name="Edipol_quadrupol">      0.00000000 </i>
    <i name="Eion">      0.00000000 </i>
   </dipole>
   <energy>
    <i name="alphaZ">    991.87286161 </i>
    <i name="ewald"> 112915.33392152 </i>
    <i name="hartreedc">-147748.86382256 </i>
    <i name="XCdc">    561.18355464 </i>
    <i name="pawpsdc">  36804.00577948 </i>
    <i name="pawaedc"> -36056.44046404 </i>
    <i name="eentropy">     -0.03264880 </i>
    <i name="bandstr">  -1353.42491876 </i>
    <i name="atom">  33771.16187166 </i>
    <i name="e_fr_energy">   -115.20386524 </i>
    <i name="e_wo_entrp">   -115.17121644 </i>
    <i name="e_0_energy">   -115.19298231 </i>
   </energy>
  </scstep>
  <structure>
   <crystal>
    <varray name="basis" >
     <v>       8.80347943       0.00000000       0.00000000 </v>
     <v>       4.40173971       7.62403682       0.00000000 </v>
     <v>       0.00000000       0.00000000      23.18801085 </v>
    </varray>
    <i name="volume">   1556.33410245 </i>
    <varray name="rec_basis" >
     <v>       0.11359145      -0.06558205       0.00000000 </v>
     <v>       0.00000000       0.13116411       0.00000000 </v>
     <v>       0.00000000       0.00000000       0.04312573 </v>
    </varray>
   </crystal>
   <varray name="positions" >
    <v>       0.00000000       0.00000000       0.00000000 </v>
    <v>       0.33333333       0.00000000       0.00000000 </v>
    <v>       0.66666667       0.00000000       0.00000000 </v>
    <v>       0.00000000       0.33333333       0.00000000 </v>
    <v>       0.33333333       0.33333333       0.00000000 </v>
    <v>       0.66666667       0.33333333       0.00000000 </v>
    <v>       0.00000000       0.66666667       0.00000000 </v>
    <v>       0.33333333       0.66666667       0.00000000 </v>
    <v>       0.66666667       0.66666667       0.00000000 </v>
    <v>       0.11111111       0.11111111       0.10332942 </v>
    <v>       0.44444444       0.11111111       0.10332942 </v>
    <v>       0.77777778       0.11111111       0.10332942 </v>
    <v>       0.11111111       0.44444444       0.10332942 </v>
    <v>       0.44444444       0.44444444       0.10332942 </v>
    <v>       0.77777778       0.44444444       0.10332942 </v>
    <v>       0.11111111       0.77777778       0.10332942 </v>
    <v>       0.44444444       0.77777778       0.10332942 </v>
    <v>       0.77777778       0.77777778       0.10332942 </v>
    <v>       0.89098493       0.22117420       0.20810853 </v>
    <v>       0.22117429       0.22117409       0.20810861 </v>
    <v>       0.55651462       0.22030101       0.20526590 </v>
    <v>       0.89048055       0.55237209       0.20679379 </v>
    <v>       0.22030092       0.55651770       0.20526593 </v>
    <v>       0.55651772       0.55651469       0.20526591 </v>
    <v>       0.89048056       0.89048051       0.20679374 </v>
    <v>       0.22117429       0.89098500       0.20810853 </v>
    <v>       0.55237247       0.89048048       0.20679375 </v>
    <v>       0.98965624       0.98965637       0.31375486 </v>
    <v>       0.35402167       0.98965551       0.31375511 </v>
    <v>       0.66727011       0.99879369       0.31002356 </v>
    <v>       0.98965537       0.35402172       0.31375510 </v>
    <v>       0.33533816       0.33533809       0.30835714 </v>
    <v>       0.66265653       0.33533825       0.30835714 </v>
    <v>       0.99879388       0.66726992       0.31002358 </v>
    <v>       0.33533787       0.66265694       0.30835720 </v>
    <v>       0.66726966       0.66726987       0.31002350 </v>
    <v>       0.11111136       0.11111142       0.36037678 </v>
   </varray>
  </structure>
  <varray name="forces" >
   <v>       0.01782107       0.01028957      -0.05541613 </v>
   <v>      -0.01783075       0.01028665      -0.05540812 </v>
   <v>       0.00000247      -0.02015570      -0.07453126 </v>
   <v>      -0.00000878      -0.02058672      -0.05542026 </v>
   <v>      -0.00287739      -0.00166649      -0.06711947 </v>
   <v>       0.00287773      -0.00165693      -0.06712269 </v>
   <v>      -0.01745843       0.01008574      -0.07452970 </v>
   <v>       0.00000079       0.00332527      -0.06710941 </v>
   <v>       0.01745406       0.01007024      -0.07452900 </v>
   <v>       0.00001024       0.00000471       0.14952152 </v>
   <v>       0.00171247       0.01368592       0.07203256 </v>
   <v>      -0.00172570       0.01369156       0.07205395 </v>
   <v>       0.01272348      -0.00535410       0.07206262 </v>
   <v>       0.00000145       0.00000453       0.02322333 </v>
   <v>      -0.01271053      -0.00535667       0.07203111 </v>
   <v>       0.01099820      -0.00833292       0.07203131 </v>
   <v>      -0.01099680      -0.00833434       0.07205860 </v>
   <v>       0.00000854      -0.00000381       0.25571176 </v>
   <v>       0.00497099      -0.00289579      -0.00778830 </v>
   <v>      -0.00499822      -0.00286240      -0.00778355 </v>
   <v>       0.00003612      -0.00426173      -0.00660179 </v>
   <v>       0.00002816      -0.00505676      -0.02277090 </v>
   <v>      -0.00371502       0.00209420      -0.00660549 </v>
   <v>       0.00366829       0.00217596      -0.00659597 </v>
   <v>       0.00437385       0.00255200      -0.02276233 </v>
   <v>       0.00002260       0.00573963      -0.00779545 </v>
   <v>      -0.00438952       0.00250989      -0.02276729 </v>
   <v>      -0.00019248      -0.00010173       0.00060565 </v>
   <v>       0.00019904      -0.00011497       0.00059810 </v>
   <v>      -0.00000671      -0.00409187      -0.01651634 </v>
   <v>       0.00000385       0.00021542       0.00061201 </v>
   <v>       0.02801151       0.01618415      -0.03882670 </v>
   <v>      -0.02802052       0.01616362      -0.03882605 </v>
   <v>      -0.00355047       0.00204444      -0.01651432 </v>
   <v>       0.00001766      -0.03235528      -0.03882834 </v>
   <v>       0.00354587       0.00204768      -0.01651383 </v>
   <v>      -0.00000714       0.00001703       0.00614020 </v>
  </varray>
  <varray name="stress" >
   <v>     -15.83000925      -0.00007477       0.00003952 </v>
   <v>      -0.00007491     -15.82995194      -0.00000991 </v>
   <v>       0.00003949      -0.00000993      -0.94005348 </v>
  </varray>
  <energy>
   <i name="e_fr_energy">   -115.20386524 </i>
   <i name="e_wo_entrp">   -115.17121644 </i>
   <i name="e_0_energy">   -115.19298231 </i>
  </energy>
  <time name="totalsc">   82.42   82.93</time>
  <eigenvalues>
   <array>
    <dimension dim="1">band</dimension>
    <dimension dim="2">kpoint</dimension>
    <dimension dim="3">spin</dimension>
    <field>eigene</field>
    <field>occ</field>
    <set>
     <set comment="spin 1">
      <set comment="kpoint 1">
       <r>  -17.2637    1.0000 </r>
       <r>   -8.1992    1.0000 </r>
       <r>   -7.0794    1.0000 </r>
       <r>   -6.8547    1.0000 </r>
       <r>   -6.3831    1.0000 </r>
       <r>   -6.3557    1.0000 </r>
       <r>   -6.1412    1.0000 </r>
       <r>   -6.0853    1.0000 </r>
       <r>   -6.0624    1.0000 </r>
       <r>   -5.9905    1.0000 </r>
       <r>   -5.9885    1.0000 </r>
       <r>   -5.9499    1.0000 </r>
       <r>   -5.8381    1.0000 </r>
       <r>   -5.7779    1.0000 </r>
       <r>   -5.6960    1.0000 </r>
       <r>   -5.6722    1.0000 </r>
       <r>   -5.6417    1.0000 </r>
       <r>   -5.5393    1.0000 </r>
       <r>   -5.4881    1.0000 </r>
       <r>   -5.4700    1.0000 </r>
       <r>   -5.3791    1.0000 </r>
       <r>   -5.3487    1.0000 </r>
       <r>   -5.3458    1.0000 </r>
       <r>   -5.2841    1.0000 </r>
       <r>   -5.2623    1.0000 </r>
       <r>   -5.2471    1.0000 </r>
       <r>   -5.2466    1.0000 </r>
       <r>   -5.2410    1.0000 </r>
       <r>   -5.2200    1.0000 </r>
       <r>   -5.1894    1.0000 </r>
       <r>   -5.1846    1.0000 </r>
       <r>   -5.1092    1.0000 </r>
       <r>   -5.0764    1.0000 </r>
       <r>   -5.0345    1.0000 </r>
       <r>   -5.0102    1.0000 </r>
       <r>   -4.9713    1.0000 </r>
       <r>   -4.9047    1.0000 </r>
       <r>   -4.8818    1.0000 </r>
       <r>   -4.8692    1.0000 </r>
       <r>   -4.8394    1.0000 </r>
       <r>   -4.7959    1.0000 </r>
       <r>   -4.7150    1.0000 </r>
       <r>   -4.6983    1.0000 </r>
       <r>   -4.6812    1.0000 </r>
       <r>   -4.6204    1.0000 </r>
       <r>   -4.6076    1.0000 </r>
       <r>   -4.5926    1.0000 </r>
       <r>   -4.5608    1.0000 </r>
       <r>   -4.5036    1.0000 </r>
       <r>   -4.4582    1.0000 </r>
       <r>   -4.3936    1.0000 </r>
       <r>   -4.3853    1.0000 </r>
       <r>   -4.3623    1.0000 </r>
       <r>   -4.3289    1.0000 </r>
       <r>   -4.3225    1.0000 </r>
       <r>   -4.2524    1.0000 </r>
       <r>   -4.2350    1.0000 </r>
       <r>   -4.2119    1.0000 </r>
       <r>   -4.1518    1.0000 </r>
       <r>   -4.1450    1.0000 </r>
       <r>   -4.0985    1.0000 </r>
       <r>   -4.0595    1.0000 </r>
       <r>   -4.0573    1.0000 </r>
       <r>   -4.0280    1.0000 </r>
       <r>   -3.9884    1.0000 </r>
       <r>   -3.9655    1.0000 </r>
       <r>   -3.9620    1.0000 </r>
       <r>   -3.9283    1.0000 </r>
       <r>   -3.9109    1.0000 </r>
       <r>   -3.8976    1.0000 </r>
       <r>   -3.8629    1.0000 </r>
       <r>   -3.8037    1.0000 </r>
       <r>   -3.7979    1.0000 </r>
       <r>   -3.7760    1.0000 </r>
       <r>   -3.7402    1.0000 </r>
       <r>   -3.7322    1.0000 </r>
       <r>   -3.7256    1.0000 </r>
       <r>   -3.6865    1.0000 </r>
       <r>   -3.6841    1.0000 </r>
       <r>   -3.6488    1.0000 </r>
       <r>   -3.6365    1.0000 </r>
       <r>   -3.6330    1.0000 </r>
       <r>   -3.6192    1.0000 </r>
       <r>   -3.6134    1.0000 </r>
       <r>   -3.6114    1.0000 </r>
       <r>   -3.5620    1.0000 </r>
       <r>   -3.5488    1.0000 </r>
       <r>   -3.5171    1.0000 </r>
       <r>   -3.4980    1.0000 </r>
       <r>   -3.4948    1.0000 </r>
       <r>   -3.4673    1.0000 </r>
       <r>   -3.4556    1.0000 </r>
       <r>   -3.4545    1.0000 </r>
       <r>   -3.4238    1.0000 </r>
       <r>   -3.4006    1.0000 </r>
       <r>   -3.3936    1.0000 </r>
       <r>   -3.3601    1.0000 </r>
       <r>   -3.3414    1.0000 </r>
       <r>   -3.3181    1.0000 </r>
       <r>   -3.2762    1.0000 </r>
       <r>   -3.2666    1.0000 </r>
       <r>   -3.2185    1.0000 </r>
       <r>   -3.2027    1.0000 </r>
       <r>   -3.1839    1.0000 </r>
       <r>   -3.1664    1.0000 </r>
       <r>   -3.1350    1.0000 </r>
       <r>   -3.1204    1.0000 </r>
       <r>   -3.1169    1.0000 </r>
       <r>   -3.0810    1.0000 </r>
       <r>   -3.0583    1.0000 </r>
       <r>   -3.0178    1.0000 </r>
       <r>   -2.9717    1.0000 </r>
       <r>   -2.9520    1.0000 </r>
       <r>   -2.9478    1.0000 </r>
       <r>   -2.9242    1.0000 </r>
       <r>   -2.8860    1.0000 </r>
       <r>   -2.8517    1.0000 </r>
       <r>   -2.8149    1.0000 </r>
       <r>   -2.8115    1.0000 </r>
       <r>   -2.8007    1.0000 </r>
       <r>   -2.7788    1.0000 </r>
       <r>   -2.7621    1.0000 </r>
       <r>   -2.7606    1.0000 </r>
       <r>   -2.6874    1.0000 </r>
       <r>   -2.6688    1.0000 </r>
       <r>   -2.6330    1.0000 </r>
       <r>   -2.6291    1.0000 </r>
       <r>   -2.6014    1.0000 </r>
       <r>   -2.5795    1.0000 </r>
       <r>   -2.5754    1.0000 </r>
       <r>   -2.5295    1.0000 </r>
       <r>   -2.4744    1.0000 </r>
       <r>   -2.4634    1.0000 </r>
       <r>   -2.4207    1.0000 </r>
       <r>   -2.4027    1.0000 </r>
       <r>   -2.3870    1.0000 </r>
       <r>   -2.3759    1.0000 </r>
       <r>   -2.3377    1.0000 </r>
       <r>   -2.3159    1.0000 </r>
       <r>   -2.2888    1.0000 </r>
       <r>   -2.2638    1.0000 </r>
       <r>   -2.2354    1.0000 </r>
       <r>   -2.2211    1.0000 </r>
       <r>   -2.1933    1.0000 </r>
       <r>   -2.1743    1.0000 </r>
       <r>   -2.1347    1.0000 </r>
       <r>   -2.1333    1.0000 </r>
       <r>   -2.1111    1.0000 </r>
       <r>   -2.0746    1.0000 </r>
       <r>   -2.0528    1.0000 </r>
       <r>   -2.0455    1.0000 </r>
       <r>   -2.0238    1.0000 </r>
       <r>   -2.0075    1.0000 </r>
       <r>   -1.9987    1.0000 </r>
       <r>   -1.9696    1.0000 </r>
       <r>   -1.9663    1.0000 </r>
       <r>   -1.9534    1.0000 </r>
       <r>   -1.9489    1.0000 </r>
       <r>   -1.8799    1.0000 </r>
       <r>   -1.8769    1.0000 </r>
       <r>   -1.8134    1.0000 </r>
       <r>   -1.8082    1.0000 </r>
       <r>   -1.7924    1.0000 </r>
       <r>   -1.7658    1.0000 </r>
       <r>   -1.7321    1.0000 </r>
       <r>   -1.6806    1.0000 </r>
       <r>   -1.6685    1.0000 </r>
       <r>   -1.6584    1.0000 </r>
       <r>   -1.6549    1.0000 </r>
       <r>   -1.6411    1.0000 </r>
       <r>   -1.6318    1.0000 </r>
       <r>   -1.6250    1.0000 </r>
       <r>   -1.6144    1.0000 </r>
       <r>   -1.5730    1.0000 </r>
       <r>   -1.5693    1.0000 </r>
       <r>   -1.5510    1.0000 </r>
       <r>   -1.5436    1.0000 </r>
       <r>   -1.5389    1.0000 </r>
       <r>   -1.5227    1.0000 </r>
       <r>   -1.5179    1.0000 </r>
       <r>   -1.4892    1.0000 </r>
       <r>   -1.4755    1.0000 </r>
       <r>   -1.4430    1.0000 </r>
       <r>   -1.4023    1.0000 </r>
       <r>   -1.3875    1.0000 </r>
       <r>   -1.3778    1.0000 </r>
       <r>   -1.3618    1.0000 </r>
       <r>   -1.3399    1.0000 </r>
       <r>   -1.2455    1.0000 </r>
       <r>   -1.2101    1.0000 </r>
       <r>   -1.0935    1.0000 </r>
       <r>   -0.9531    1.0000 </r>
       <r>   -0.9101    1.0000 </r>
       <r>   -0.8636    1.0000 </r>
       <r>   -0.7478    1.0000 </r>
       <r>   -0.7262    1.0000 </r>
       <r>   -0.5405    1.0000 </r>
       <r>   -0.4780    1.0000 </r>
       <r>   -0.4054    1.0000 </r>
       <r>   -0.2311    1.0000 </r>
       <r>   -0.0260    1.0000 </r>
       <r>    0.0915    1.0000 </r>
       <r>    0.4463    0.5452 </r>
       <r>    0.8341   -0.0000 </r>
       <r>    0.9351   -0.0000 </r>
       <r>    1.2741   -0.0000 </r>
       <r>    1.3821   -0.0000 </r>
       <r>    1.6378   -0.0000 </r>
       <r>    1.7767   -0.0000 </r>
       <r>    1.8723   -0.0000 </r>
       <r>    1.8900   -0.0000 </r>
       <r>    2.2039   -0.0000 </r>
       <r>    2.7267    0.0000 </r>
       <r>    2.9044    0.0000 </r>
       <r>    2.9344    0.0000 </r>
       <r>    3.0591    0.0000 </r>
       <r>    3.5062    0.0000 </r>
       <r>    3.5824    0.0000 </r>
       <r>    3.6598    0.0000 </r>
       <r>    3.9272    0.0000 </r>
       <r>    4.0593    0.0000 </r>
       <r>    4.0690    0.0000 </r>
       <r>    4.3500    0.0000 </r>
       <r>    4.5073    0.0000 </r>
       <r>    4.5945    0.0000 </r>
       <r>    4.8679    0.0000 </r>
       <r>    4.8698    0.0000 </r>
       <r>    5.0917    0.0000 </r>
       <r>    5.1878    0.0000 </r>
       <r>    5.2159    0.0000 </r>
       <r>    5.3035    0.0000 </r>
       <r>    5.5604    0.0000 </r>
       <r>    5.6416    0.0000 </r>
       <r>    5.7072    0.0000 </r>
       <r>    5.8541    0.0000 </r>
       <r>    5.9639    0.0000 </r>
       <r>    6.0974    0.0000 </r>
       <r>    6.1069    0.0000 </r>
       <r>    6.1811    0.0000 </r>
       <r>    6.6133    0.0000 </r>
       <r>    6.7953    0.0000 </r>
       <r>    6.8391    0.0000 </r>
      </set>
      <set comment="kpoint 2">
       <r>  -17.2637    1.0000 </r>
       <r>   -8.1992    1.0000 </r>
       <r>   -7.0794    1.0000 </r>
       <r>   -6.8547    1.0000 </r>
       <r>   -6.3831    1.0000 </r>
       <r>   -6.3557    1.0000 </r>
       <r>   -6.1412    1.0000 </r>
       <r>   -6.0853    1.0000 </r>
       <r>   -6.0624    1.0000 </r>
       <r>   -5.9905    1.0000 </r>
       <r>   -5.9885    1.0000 </r>
       <r>   -5.9499    1.0000 </r>
       <r>   -5.8381    1.0000 </r>
       <r>   -5.7779    1.0000 </r>
       <r>   -5.6960    1.0000 </r>
       <r>   -5.6722    1.0000 </r>
       <r>   -5.6417    1.0000 </r>
       <r>   -5.5393    1.0000 </r>
       <r>   -5.4881    1.0000 </r>
       <r>   -5.4700    1.0000 </r>
       <r>   -5.3791    1.0000 </r>
       <r>   -5.3487    1.0000 </r>
       <r>   -5.3458    1.0000 </r>
       <r>   -5.2841    1.0000 </r>
       <r>   -5.2623    1.0000 </r>
       <r>   -5.2471    1.0000 </r>
       <r>   -5.2466    1.0000 </r>
       <r>   -5.2410    1.0000 </r>
       <r>   -5.2200    1.0000 </r>
       <r>   -5.1894    1.0000 </r>
       <r>   -5.1846    1.0000 </r>
       <r>   -5.1092    1.0000 </r>
       <r>   -5.0764    1.0000 </r>
       <r>   -5.0345    1.0000 </r>
       <r>   -5.0102    1.0000 </r>
       <r>   -4.9713    1.0000 </r>
       <r>   -4.9047    1.0000 </r>
       <r>   -4.8818    1.0000 </r>
       <r>   -4.8692    1.0000 </r>
       <r>   -4.8394    1.0000 </r>
       <r>   -4.7959    1.0000 </r>
       <r>   -4.7150    1.0000 </r>
       <r>   -4.6983    1.0000 </r>
       <r>   -4.6812    1.0000 </r>
       <r>   -4.6204    1.0000 </r>
       <r>   -4.6076    1.0000 </r>
       <r>   -4.5926    1.0000 </r>
       <r>   -4.5608    1.0000 </r>
       <r>   -4.5036    1.0000 </r>
       <r>   -4.4582    1.0000 </r>
       <r>   -4.3936    1.0000 </r>
       <r>   -4.3853    1.0000 </r>
       <r>   -4.3623    1.0000 </r>
       <r>   -4.3289    1.0000 </r>
       <r>   -4.3225    1.0000 </r>
       <r>   -4.2524    1.0000 </r>
       <r>   -4.2350    1.0000 </r>
       <r>   -4.2119    1.0000 </r>
       <r>   -4.1518    1.0000 </r>
       <r>   -4.1450    1.0000 </r>
       <r>   -4.0985    1.0000 </r>
       <r>   -4.0595    1.0000 </r>
       <r>   -4.0573    1.0000 </r>
       <r>   -4.0280    1.0000 </r>
       <r>   -3.9884    1.0000 </r>
       <r>   -3.9655    1.0000 </r>
       <r>   -3.9620    1.0000 </r>
       <r>   -3.9283    1.0000 </r>
       <r>   -3.9109    1.0000 </r>
       <r>   -3.8976    1.0000 </r>
       <r>   -3.8629    1.0000 </r>
       <r>   -3.8037    1.0000 </r>
       <r>   -3.7979    1.0000 </r>
       <r>   -3.7760    1.0000 </r>
       <r>   -3.7402    1.0000 </r>
       <r>   -3.7322    1.0000 </r>
       <r>   -3.7256    1.0000 </r>
       <r>   -3.6865    1.0000 </r>
       <r>   -3.6841    1.0000 </r>
       <r>   -3.6488    1.0000 </r>
       <r>   -3.6365    1.0000 </r>
       <r>   -3.6330    1.0000 </r>
       <r>   -3.6192    1.0000 </r>
       <r>   -3.6134    1.0000 </r>
       <r>   -3.6114    1.0000 </r>
       <r>   -3.5620    1.0000 </r>
       <r>   -3.5488    1.0000 </r>
       <r>   -3.5171    1.0000 </r>
       <r>   -3.4980    1.0000 </r>
       <r>   -3.4948    1.0000 </r>
       <r>   -3.4673    1.0000 </r>
       <r>   -3.4556    1.0000 </r>
       <r>   -3.4545    1.0000 </r>
       <r>   -3.4238    1.0000 </r>
       <r>   -3.4006    1.0000 </r>
       <r>   -3.3936    1.0000 </r>
       <r>   -3.3601    1.0000 </r>
       <r>   -3.3414    1.0000 </r>
       <r>   -3.3181    1.0000 </r>
       <r>   -3.2762    1.0000 </r>
       <r>   -3.2666    1.0000 </r>
       <r>   -3.2185    1.0000 </r>
       <r>   -3.2027    1.0000 </r>
       <r>   -3.1839    1.0000 </r>
       <r>   -3.1664    1.0000 </r>
       <r>   -3.1350    1.0000 </r>
       <r>   -3.1204    1.0000 </r>
       <r>   -3.1169    1.0000 </r>
       <r>   -3.0810    1.0000 </r>
       <r>   -3.0583    1.0000 </r>
       <r>   -3.0178    1.0000 </r>
       <r>   -2.9717    1.0000 </r>
       <r>   -2.9520    1.0000 </r>
       <r>   -2.9478    1.0000 </r>
       <r>   -2.9242    1.0000 </r>
       <r>   -2.8860    1.0000 </r>
       <r>   -2.8517    1.0000 </r>
       <r>   -2.8149    1.0000 </r>
       <r>   -2.8115    1.0000 </r>
       <r>   -2.8007    1.0000 </r>
       <r>   -2.7788    1.0000 </r>
       <r>   -2.7621    1.0000 </r>
       <r>   -2.7606    1.0000 </r>
       <r>   -2.6874    1.0000 </r>
       <r>   -2.6688    1.0000 </r>
       <r>   -2.6330    1.0000 </r>
       <r>   -2.6291    1.0000 </r>
       <r>   -2.6014    1.0000 </r>
       <r>   -2.5795    1.0000 </r>
       <r>   -2.5754    1.0000 </r>
       <r>   -2.5295    1.0000 </r>
       <r>   -2.4744    1.0000 </r>
       <r>   -2.4634    1.0000 </r>
       <r>   -2.4207    1.0000 </r>
       <r>   -2.4027    1.0000 </r>
       <r>   -2.3870    1.0000 </r>
       <r>   -2.3759    1.0000 </r>
       <r>   -2.3377    1.0000 </r>
       <r>   -2.3159    1.0000 </r>
       <r>   -2.2888    1.0000 </r>
       <r>   -2.2638    1.0000 </r>
       <r>   -2.2354    1.0000 </r>
       <r>   -2.2211    1.0000 </r>
       <r>   -2.1933    1.0000 </r>
       <r>   -2.1743    1.0000 </r>
       <r>   -2.1347    1.0000 </r>
       <r>   -2.1333    1.0000 </r>
       <r>   -2.1111    1.0000 </r>
       <r>   -2.0746    1.0000 </r>
       <r>   -2.0528    1.0000 </r>
       <r>   -2.0455    1.0000 </r>
       <r>   -2.0238    1.0000 </r>
       <r>   -2.0075    1.0000 </r>
       <r>   -1.9987    1.0000 </r>
       <r>   -1.9696    1.0000 </r>
       <r>   -1.9663    1.0000 </r>
       <r>   -1.9534    1.0000 </r>
       <r>   -1.9489    1.0000 </r>
       <r>   -1.8799    1.0000 </r>
       <r>   -1.8769    1.0000 </r>
       <r>   -1.8134    1.0000 </r>
       <r>   -1.8082    1.0000 </r>
       <r>   -1.7924    1.0000 </r>
       <r>   -1.7658    1.0000 </r>
       <r>   -1.7321    1.0000 </r>
       <r>   -1.6806    1.0000 </r>
       <r>   -1.6685    1.0000 </r>
       <r>   -1.6584    1.0000 </r>
       <r>   -1.6549    1.0000 </r>
       <r>   -1.6411    1.0000 </r>
       <r>   -1.6318    1.0000 </r>
       <r>   -1.6250    1.0000 </r>
       <r>   -1.6144    1.0000 </r>
       <r>   -1.5730    1.0000 </r>
       <r>   -1.5693    1.0000 </r>
       <r>   -1.5510    1.0000 </r>
       <r>   -1.5436    1.0000 </r>
       <r>   -1.5389    1.0000 </r>
       <r>   -1.5227    1.0000 </r>
       <r>   -1.5179    1.0000 </r>
       <r>   -1.4892    1.0000 </r>
       <r>   -1.4755    1.0000 </r>
       <r>   -1.4430    1.0000 </r>
       <r>   -1.4023    1.0000 </r>
       <r>   -1.3875    1.0000 </r>
       <r>   -1.3778    1.0000 </r>
       <r>   -1.3618    1.0000 </r>
       <r>   -1.3399    1.0000 </r>
       <r>   -1.2455    1.0000 </r>
       <r>   -1.2101    1.0000 </r>
       <r>   -1.0935    1.0000 </r>
       <r>   -0.9531    1.0000 </r>
       <r>   -0.9101    1.0000 </r>
       <r>   -0.8636    1.0000 </r>
       <r>   -0.7478    1.0000 </r>
       <r>   -0.7262    1.0000 </r>
       <r>   -0.5405    1.0000 </r>
       <r>   -0.4780    1.0000 </r>
       <r>   -0.4054    1.0000 </r>
       <r>   -0.2311    1.0000 </r>
       <r>   -0.0260    1.0000 </r>
       <r>    0.0915    1.0000 </r>
       <r>    0.4463    0.5452 </r>
       <r>    0.8341   -0.0000 </r>
       <r>    0.9351   -0.0000 </r>
       <r>    1.2741   -0.0000 </r>
       <r>    1.3821   -0.0000 </r>
       <r>    1.6378   -0.0000 </r>
       <r>    1.7767   -0.0000 </r>
       <r>    1.8723   -0.0000 </r>
       <r>    1.8900   -0.0000 </r>
       <r>    2.2039   -0.0000 </r>
       <r>    2.7267    0.0000 </r>
       <r>    2.9044    0.0000 </r>
       <r>    2.9344    0.0000 </r>
       <r>    3.0591    0.0000 </r>
       <r>    3.5062    0.0000 </r>
       <r>    3.5824    0.0000 </r>
       <r>    3.6598    0.0000 </r>
       <r>    3.9272    0.0000 </r>
       <r>    4.0593    0.0000 </r>
       <r>    4.0690    0.0000 </r>
       <r>    4.3500    0.0000 </r>
       <r>    4.5073    0.0000 </r>
       <r>    4.5945    0.0000 </r>
       <r>    4.8679    0.0000 </r>
       <r>    4.8698    0.0000 </r>
       <r>    5.0917    0.0000 </r>
       <r>    5.1878    0.0000 </r>
       <r>    5.2159    0.0000 </r>
       <r>    5.3038    0.0000 </r>
       <r>    5.5604    0.0000 </r>
       <r>    5.6419    0.0000 </r>
       <r>    5.7079    0.0000 </r>
       <r>    5.8553    0.0000 </r>
       <r>    5.9770    0.0000 </r>
       <r>    6.0929    0.0000 </r>
       <r>    6.1722    0.0000 </r>
       <r>    6.5555    0.0000 </r>
       <r>    6.6892    0.0000 </r>
       <r>    6.7851    0.0000 </r>
       <r>    6.9256    0.0000 </r>
      </set>
      <set comment="kpoint 3">
       <r>  -17.2637    1.0000 </r>
       <r>   -8.1992    1.0000 </r>
       <r>   -7.0794    1.0000 </r>
       <r>   -6.8547    1.0000 </r>
       <r>   -6.3831    1.0000 </r>
       <r>   -6.3557    1.0000 </r>
       <r>   -6.1412    1.0000 </r>
       <r>   -6.0853    1.0000 </r>
       <r>   -6.0624    1.0000 </r>
       <r>   -5.9905    1.0000 </r>
       <r>   -5.9885    1.0000 </r>
       <r>   -5.9499    1.0000 </r>
       <r>   -5.8381    1.0000 </r>
       <r>   -5.7779    1.0000 </r>
       <r>   -5.6960    1.0000 </r>
       <r>   -5.6722    1.0000 </r>
       <r>   -5.6417    1.0000 </r>
       <r>   -5.5393    1.0000 </r>
       <r>   -5.4881    1.0000 </r>
       <r>   -5.4700    1.0000 </r>
       <r>   -5.3791    1.0000 </r>
       <r>   -5.3487    1.0000 </r>
       <r>   -5.3458    1.0000 </r>
       <r>   -5.2841    1.0000 </r>
       <r>   -5.2623    1.0000 </r>
       <r>   -5.2471    1.0000 </r>
       <r>   -5.2466    1.0000 </r>
       <r>   -5.2410    1.0000 </r>
       <r>   -5.2200    1.0000 </r>
       <r>   -5.1894    1.0000 </r>
       <r>   -5.1846    1.0000 </r>
       <r>   -5.1092    1.0000 </r>
       <r>   -5.0764    1.0000 </r>
       <r>   -5.0345    1.0000 </r>
       <r>   -5.0102    1.0000 </r>
       <r>   -4.9713    1.0000 </r>
       <r>   -4.9047    1.0000 </r>
       <r>   -4.8818    1.0000 </r>
       <r>   -4.8692    1.0000 </r>
       <r>   -4.8394    1.0000 </r>
       <r>   -4.7959    1.0000 </r>
       <r>   -4.7150    1.0000 </r>
       <r>   -4.6983    1.0000 </r>
       <r>   -4.6812    1.0000 </r>
       <r>   -4.6204    1.0000 </r>
       <r>   -4.6076    1.0000 </r>
       <r>   -4.5926    1.0000 </r>
       <r>   -4.5608    1.0000 </r>
       <r>   -4.5036    1.0000 </r>
       <r>   -4.4582    1.0000 </r>
       <r>   -4.3936    1.0000 </r>
       <r>   -4.3853    1.0000 </r>
       <r>   -4.3623    1.0000 </r>
       <r>   -4.3289    1.0000 </r>
       <r>   -4.3225    1.0000 </r>
       <r>   -4.2524    1.0000 </r>
       <r>   -4.2350    1.0000 </r>
       <r>   -4.2119    1.0000 </r>
       <r>   -4.1518    1.0000 </r>
       <r>   -4.1450    1.0000 </r>
       <r>   -4.0985    1.0000 </r>
       <r>   -4.0595    1.0000 </r>
       <r>   -4.0573    1.0000 </r>
       <r>   -4.0280    1.0000 </r>
       <r>   -3.9884    1.0000 </r>
       <r>   -3.9655    1.0000 </r>
       <r>   -3.9620    1.0000 </r>
       <r>   -3.9283    1.0000 </r>
       <r>   -3.9109    1.0000 </r>
       <r>   -3.8976    1.0000 </r>
       <r>   -3.8629    1.0000 </r>
       <r>   -3.8037    1.0000 </r>
       <r>   -3.7979    1.0000 </r>
       <r>   -3.7760    1.0000 </r>
       <r>   -3.7402    1.0000 </r>
       <r>   -3.7322    1.0000 </r>
       <r>   -3.7256    1.0000 </r>
       <r>   -3.6865    1.0000 </r>
       <r>   -3.6841    1.0000 </r>
       <r>   -3.6488    1.0000 </r>
       <r>   -3.6365    1.0000 </r>
       <r>   -3.6330    1.0000 </r>
       <r>   -3.6192    1.0000 </r>
       <r>   -3.6134    1.0000 </r>
       <r>   -3.6114    1.0000 </r>
       <r>   -3.5620    1.0000 </r>
       <r>   -3.5488    1.0000 </r>
       <r>   -3.5171    1.0000 </r>
       <r>   -3.4980    1.0000 </r>
       <r>   -3.4948    1.0000 </r>
       <r>   -3.4673    1.0000 </r>
       <r>   -3.4556    1.0000 </r>
       <r>   -3.4545    1.0000 </r>
       <r>   -3.4238    1.0000 </r>
       <r>   -3.4006    1.0000 </r>
       <r>   -3.3936    1.0000 </r>
       <r>   -3.3601    1.0000 </r>
       <r>   -3.3414    1.0000 </r>
       <r>   -3.3181    1.0000 </r>
       <r>   -3.2762    1.0000 </r>
       <r>   -3.2666    1.0000 </r>
       <r>   -3.2185    1.0000 </r>
       <r>   -3.2027    1.0000 </r>
       <r>   -3.1839    1.0000 </r>
       <r>   -3.1664    1.0000 </r>
       <r>   -3.1350    1.0000 </r>
       <r>   -3.1204    1.0000 </r>
       <r>   -3.1169    1.0000 </r>
       <r>   -3.0810    1.0000 </r>
       <r>   -3.0583    1.0000 </r>
       <r>   -3.0178    1.0000 </r>
       <r>   -2.9717    1.0000 </r>
       <r>   -2.9520    1.0000 </r>
       <r>   -2.9478    1.0000 </r>
       <r>   -2.9242    1.0000 </r>
       <r>   -2.8860    1.0000 </r>
       <r>   -2.8517    1.0000 </r>
       <r>   -2.8149    1.0000 </r>
       <r>   -2.8115    1.0000 </r>
       <r>   -2.8007    1.0000 </r>
       <r>   -2.7788    1.0000 </r>
       <r>   -2.7621    1.0000 </r>
       <r>   -2.7606    1.0000 </r>
       <r>   -2.6874    1.0000 </r>
       <r>   -2.6688    1.0000 </r>
       <r>   -2.6330    1.0000 </r>
       <r>   -2.6291    1.0000 </r>
       <r>   -2.6014    1.0000 </r>
       <r>   -2.5795    1.0000 </r>
       <r>   -2.5754    1.0000 </r>
       <r>   -2.5295    1.0000 </r>
       <r>   -2.4744    1.0000 </r>
       <r>   -2.4634    1.0000 </r>
       <r>   -2.4207    1.0000 </r>
       <r>   -2.4027    1.0000 </r>
       <r>   -2.3870    1.0000 </r>
       <r>   -2.3759    1.0000 </r>
       <r>   -2.3377    1.0000 </r>
       <r>   -2.3159    1.0000 </r>
       <r>   -2.2888    1.0000 </r>
       <r>   -2.2638    1.0000 </r>
       <r>   -2.2354    1.0000 </r>
       <r>   -2.2211    1.0000 </r>
       <r>   -2.1933    1.0000 </r>
       <r>   -2.1743    1.0000 </r>
       <r>   -2.1347    1.0000 </r>
       <r>   -2.1333    1.0000 </r>
       <r>   -2.1111    1.0000 </r>
       <r>   -2.0746    1.0000 </r>
       <r>   -2.0528    1.0000 </r>
       <r>   -2.0455    1.0000 </r>
       <r>   -2.0238    1.0000 </r>
       <r>   -2.0075    1.0000 </r>
       <r>   -1.9987    1.0000 </r>
       <r>   -1.9696    1.0000 </r>
       <r>   -1.9663    1.0000 </r>
       <r>   -1.9534    1.0000 </r>
       <r>   -1.9489    1.0000 </r>
       <r>   -1.8799    1.0000 </r>
       <r>   -1.8769    1.0000 </r>
       <r>   -1.8134    1.0000 </r>
       <r>   -1.8082    1.0000 </r>
       <r>   -1.7924    1.0000 </r>
       <r>   -1.7658    1.0000 </r>
       <r>   -1.7321    1.0000 </r>
       <r>   -1.6806    1.0000 </r>
       <r>   -1.6685    1.0000 </r>
       <r>   -1.6584    1.0000 </r>
       <r>   -1.6549    1.0000 </r>
       <r>   -1.6411    1.0000 </r>
       <r>   -1.6318    1.0000 </r>
       <r>   -1.6250    1.0000 </r>
       <r>   -1.6144    1.0000 </r>
       <r>   -1.5730    1.0000 </r>
       <r>   -1.5693    1.0000 </r>
       <r>   -1.5510    1.0000 </r>
       <r>   -1.5436    1.0000 </r>
       <r>   -1.5389    1.0000 </r>
       <r>   -1.5227    1.0000 </r>
       <r>   -1.5179    1.0000 </r>
       <r>   -1.4892    1.0000 </r>
       <r>   -1.4755    1.0000 </r>
       <r>   -1.4430    1.0000 </r>
       <r>   -1.4023    1.0000 </r>
       <r>   -1.3875    1.0000 </r>
       <r>   -1.3778    1.0000 </r>
       <r>   -1.3618    1.0000 </r>
       <r>   -1.3399    1.0000 </r>
       <r>   -1.2455    1.0000 </r>
       <r>   -1.2101    1.0000 </r>
       <r>   -1.0935    1.0000 </r>
       <r>   -0.9531    1.0000 </r>
       <r>   -0.9101    1.0000 </r>
       <r>   -0.8636    1.0000 </r>
       <r>   -0.7478    1.0000 </r>
       <r>   -0.7262    1.0000 </r>
       <r>   -0.5405    1.0000 </r>
       <r>   -0.4780    1.0000 </r>
       <r>   -0.4054    1.0000 </r>
       <r>   -0.2311    1.0000 </r>
       <r>   -0.0260    1.0000 </r>
       <r>    0.0915    1.0000 </r>
       <r>    0.4463    0.5452 </r>
       <r>    0.8341   -0.0000 </r>
       <r>    0.9351   -0.0000 </r>
       <r>    1.2741   -0.0000 </r>
       <r>    1.3821   -0.0000 </r>
       <r>    1.6378   -0.0000 </r>
       <r>    1.7767   -0.0000 </r>
       <r>    1.8723   -0.0000 </r>
       <r>    1.8900   -0.0000 </r>
       <r>    2.2039   -0.0000 </r>
       <r>    2.7267    0.0000 </r>
       <r>    2.9044    0.0000 </r>
       <r>    2.9344    0.0000 </r>
       <r>    3.0591    0.0000 </r>
       <r>    3.5062    0.0000 </r>
       <r>    3.5824    0.0000 </r>
       <r>    3.6598    0.0000 </r>
       <r>    3.9272    0.0000 </r>
       <r>    4.0593    0.0000 </r>
       <r>    4.0690    0.0000 </r>
       <r>    4.3500    0.0000 </r>
       <r>    4.5073    0.0000 </r>
       <r>    4.5945    0.0000 </r>
       <r>    4.8679    0.0000 </r>
       <r>    4.8698    0.0000 </r>
       <r>    5.0917    0.0000 </r>
       <r>    5.1878    0.0000 </r>
       <r>    5.2159    0.0000 </r>
       <r>    5.3037    0.0000 </r>
       <r>    5.5605    0.0000 </r>
       <r>    5.6431    0.0000 </r>
       <r>    5.7093    0.0000 </r>
       <r>    5.8536    0.0000 </r>
       <r>    5.9756    0.0000 </r>
       <r>    6.1041    0.0000 </r>
       <r>    6.1682    0.0000 </r>
       <r>    6.5587    0.0000 </r>
       <r>    6.6300    0.0000 </r>
       <r>    6.6758    0.0000 </r>
       <r>    6.8371    0.0000 </r>
      </set>
      <set comment="kpoint 4">
       <r>  -17.2635    1.0000 </r>
       <r>   -7.8145    1.0000 </r>
       <r>   -7.1412    1.0000 </r>
       <r>   -7.1033    1.0000 </r>
       <r>   -6.7188    1.0000 </r>
       <r>   -6.1930    1.0000 </r>
       <r>   -6.1097    1.0000 </r>
       <r>   -5.9323    1.0000 </r>
       <r>   -5.9202    1.0000 </r>
       <r>   -5.8131    1.0000 </r>
       <r>   -5.7935    1.0000 </r>
       <r>   -5.7592    1.0000 </r>
       <r>   -5.7572    1.0000 </r>
       <r>   -5.7434    1.0000 </r>
       <r>   -5.7231    1.0000 </r>
       <r>   -5.5910    1.0000 </r>
       <r>   -5.5323    1.0000 </r>
       <r>   -5.5076    1.0000 </r>
       <r>   -5.5048    1.0000 </r>
       <r>   -5.4858    1.0000 </r>
       <r>   -5.4391    1.0000 </r>
       <r>   -5.3888    1.0000 </r>
       <r>   -5.3433    1.0000 </r>
       <r>   -5.3158    1.0000 </r>
       <r>   -5.2867    1.0000 </r>
       <r>   -5.2804    1.0000 </r>
       <r>   -5.2624    1.0000 </r>
       <r>   -5.2524    1.0000 </r>
       <r>   -5.2109    1.0000 </r>
       <r>   -5.1834    1.0000 </r>
       <r>   -5.1550    1.0000 </r>
       <r>   -5.1426    1.0000 </r>
       <r>   -5.0908    1.0000 </r>
       <r>   -5.0626    1.0000 </r>
       <r>   -5.0090    1.0000 </r>
       <r>   -4.9684    1.0000 </r>
       <r>   -4.9545    1.0000 </r>
       <r>   -4.9364    1.0000 </r>
       <r>   -4.8422    1.0000 </r>
       <r>   -4.8184    1.0000 </r>
       <r>   -4.7045    1.0000 </r>
       <r>   -4.6746    1.0000 </r>
       <r>   -4.6586    1.0000 </r>
       <r>   -4.6363    1.0000 </r>
       <r>   -4.6171    1.0000 </r>
       <r>   -4.5885    1.0000 </r>
       <r>   -4.5630    1.0000 </r>
       <r>   -4.5543    1.0000 </r>
       <r>   -4.5070    1.0000 </r>
       <r>   -4.4683    1.0000 </r>
       <r>   -4.4391    1.0000 </r>
       <r>   -4.4042    1.0000 </r>
       <r>   -4.3811    1.0000 </r>
       <r>   -4.3659    1.0000 </r>
       <r>   -4.3461    1.0000 </r>
       <r>   -4.3339    1.0000 </r>
       <r>   -4.3078    1.0000 </r>
       <r>   -4.2756    1.0000 </r>
       <r>   -4.2554    1.0000 </r>
       <r>   -4.2275    1.0000 </r>
       <r>   -4.1834    1.0000 </r>
       <r>   -4.1805    1.0000 </r>
       <r>   -4.1493    1.0000 </r>
       <r>   -4.1213    1.0000 </r>
       <r>   -4.1021    1.0000 </r>
       <r>   -4.0750    1.0000 </r>
       <r>   -4.0641    1.0000 </r>
       <r>   -4.0503    1.0000 </r>
       <r>   -3.9976    1.0000 </r>
       <r>   -3.9495    1.0000 </r>
       <r>   -3.9053    1.0000 </r>
       <r>   -3.8695    1.0000 </r>
       <r>   -3.8514    1.0000 </r>
       <r>   -3.8422    1.0000 </r>
       <r>   -3.8209    1.0000 </r>
       <r>   -3.8064    1.0000 </r>
       <r>   -3.7841    1.0000 </r>
       <r>   -3.7756    1.0000 </r>
       <r>   -3.7461    1.0000 </r>
       <r>   -3.7219    1.0000 </r>
       <r>   -3.6950    1.0000 </r>
       <r>   -3.6664    1.0000 </r>
       <r>   -3.6466    1.0000 </r>
       <r>   -3.6373    1.0000 </r>
       <r>   -3.6196    1.0000 </r>
       <r>   -3.5817    1.0000 </r>
       <r>   -3.5386    1.0000 </r>
       <r>   -3.5352    1.0000 </r>
       <r>   -3.5185    1.0000 </r>
       <r>   -3.4971    1.0000 </r>
       <r>   -3.4835    1.0000 </r>
       <r>   -3.4667    1.0000 </r>
       <r>   -3.4401    1.0000 </r>
       <r>   -3.4340    1.0000 </r>
       <r>   -3.4234    1.0000 </r>
       <r>   -3.4104    1.0000 </r>
       <r>   -3.4043    1.0000 </r>
       <r>   -3.3919    1.0000 </r>
       <r>   -3.3697    1.0000 </r>
       <r>   -3.3410    1.0000 </r>
       <r>   -3.3391    1.0000 </r>
       <r>   -3.3021    1.0000 </r>
       <r>   -3.2815    1.0000 </r>
       <r>   -3.2659    1.0000 </r>
       <r>   -3.2405    1.0000 </r>
       <r>   -3.2087    1.0000 </r>
       <r>   -3.1948    1.0000 </r>
       <r>   -3.1721    1.0000 </r>
       <r>   -3.1556    1.0000 </r>
       <r>   -3.1003    1.0000 </r>
       <r>   -3.0888    1.0000 </r>
       <r>   -3.0799    1.0000 </r>
       <r>   -3.0644    1.0000 </r>
       <r>   -3.0342    1.0000 </r>
       <r>   -3.0025    1.0000 </r>
       <r>   -2.9478    1.0000 </r>
       <r>   -2.9075    1.0000 </r>
       <r>   -2.8878    1.0000 </r>
       <r>   -2.8732    1.0000 </r>
       <r>   -2.8438    1.0000 </r>
       <r>   -2.8102    1.0000 </r>
       <r>   -2.7954    1.0000 </r>
       <r>   -2.7718    1.0000 </r>
       <r>   -2.7442    1.0000 </r>
       <r>   -2.7376    1.0000 </r>
       <r>   -2.7129    1.0000 </r>
       <r>   -2.7033    1.0000 </r>
       <r>   -2.6399    1.0000 </r>
       <r>   -2.5956    1.0000 </r>
       <r>   -2.5752    1.0000 </r>
       <r>   -2.5334    1.0000 </r>
       <r>   -2.5285    1.0000 </r>
       <r>   -2.5049    1.0000 </r>
       <r>   -2.4670    1.0000 </r>
       <r>   -2.4563    1.0000 </r>
       <r>   -2.4310    1.0000 </r>
       <r>   -2.3992    1.0000 </r>
       <r>   -2.3751    1.0000 </r>
       <r>   -2.3596    1.0000 </r>
       <r>   -2.3013    1.0000 </r>
       <r>   -2.2937    1.0000 </r>
       <r>   -2.2742    1.0000 </r>
       <r>   -2.2447    1.0000 </r>
       <r>   -2.2122    1.0000 </r>
       <r>   -2.1923    1.0000 </r>
[...]
       <r>    6.0086    0.0000 </r>
       <r>    6.0559    0.0000 </r>
       <r>    6.1658    0.0000 </r>
       <r>    6.6265    0.0000 </r>
       <r>    6.6933    0.0000 </r>
      </set>
     </set>
    </set>
   </array>
  </eigenvalues>
  <separator name="orbital magnetization" >
   <v name="MAGDIPOLOUT">      0.00000000      0.00000000      0.00000000</v>
  </separator>
  <dos>
   <i name="efermi">      0.45161645 </i>
   <total>
    <array>
     <dimension dim="1">gridpoints</dimension>
     <dimension dim="2">spin</dimension>
     <field>energy</field>
     <field>total</field>
     <field>integrated</field>
     <set>
      <set comment="spin 1">
       <r>   -18.4732     0.0000     0.0000 </r>
       <r>   -18.3845     0.0000     0.0000 </r>
       <r>   -18.2958     0.0000     0.0000 </r>
       <r>   -18.2071     0.0000     0.0000 </r>
       <r>   -18.1184    -0.0000    -0.0000 </r>
       <r>   -18.0297    -0.0000    -0.0000 </r>
       <r>   -17.9410    -0.0000    -0.0000 </r>
       <r>   -17.8523    -0.0000    -0.0000 </r>
       <r>   -17.7636    -0.0000    -0.0000 </r>
       <r>   -17.6749    -0.0000    -0.0000 </r>
       <r>   -17.5862    -0.0006    -0.0000 </r>
       <r>   -17.4975    -0.0514    -0.0046 </r>
       <r>   -17.4088    -0.6181    -0.0594 </r>
       <r>   -17.3201     2.8381     0.1923 </r>
       <r>   -17.2314    14.9060     1.5144 </r>
       <r>   -17.1428     6.2740     2.0708 </r>
       <r>   -17.0541    -0.6678     2.0116 </r>
       <r>   -16.9654    -0.1285     2.0002 </r>
       <r>   -16.8767    -0.0023     2.0000 </r>
       <r>   -16.7880    -0.0000     2.0000 </r>
       <r>   -16.6993    -0.0000     2.0000 </r>
       <r>   -16.6106    -0.0000     2.0000 </r>
       <r>   -16.5219     0.0000     2.0000 </r>
       <r>   -16.4332     0.0000     2.0000 </r>
       <r>   -16.3445     0.0000     2.0000 </r>
       <r>   -16.2558     0.0000     2.0000 </r>
       <r>   -16.1671     0.0000     2.0000 </r>
       <r>   -16.0784     0.0000     2.0000 </r>
       <r>   -15.9897     0.0000     2.0000 </r>
       <r>   -15.9010     0.0000     2.0000 </r>
       <r>   -15.8123     0.0000     2.0000 </r>
       <r>   -15.7236     0.0000     2.0000 </r>
       <r>   -15.6350     0.0000     2.0000 </r>
       <r>   -15.5463     0.0000     2.0000 </r>
       <r>   -15.4576     0.0000     2.0000 </r>
       <r>   -15.3689     0.0000     2.0000 </r>
       <r>   -15.2802     0.0000     2.0000 </r>
       <r>   -15.1915     0.0000     2.0000 </r>
       <r>   -15.1028     0.0000     2.0000 </r>
       <r>   -15.0141     0.0000     2.0000 </r>
       <r>   -14.9254     0.0000     2.0000 </r>
       <r>   -14.8367     0.0000     2.0000 </r>
       <r>   -14.7480     0.0000     2.0000 </r>
       <r>   -14.6593     0.0000     2.0000 </r>
       <r>   -14.5706     0.0000     2.0000 </r>
       <r>   -14.4819     0.0000     2.0000 </r>
       <r>   -14.3932     0.0000     2.0000 </r>
       <r>   -14.3045     0.0000     2.0000 </r>
       <r>   -14.2158     0.0000     2.0000 </r>
       <r>   -14.1272     0.0000     2.0000 </r>
       <r>   -14.0385     0.0000     2.0000 </r>
       <r>   -13.9498     0.0000     2.0000 </r>
       <r>   -13.8611     0.0000     2.0000 </r>
       <r>   -13.7724     0.0000     2.0000 </r>
       <r>   -13.6837     0.0000     2.0000 </r>
       <r>   -13.5950     0.0000     2.0000 </r>
       <r>   -13.5063     0.0000     2.0000 </r>
       <r>   -13.4176     0.0000     2.0000 </r>
       <r>   -13.3289     0.0000     2.0000 </r>
       <r>   -13.2402     0.0000     2.0000 </r>
       <r>   -13.1515     0.0000     2.0000 </r>
       <r>   -13.0628     0.0000     2.0000 </r>
       <r>   -12.9741     0.0000     2.0000 </r>
       <r>   -12.8854     0.0000     2.0000 </r>
       <r>   -12.7967     0.0000     2.0000 </r>
       <r>   -12.7080     0.0000     2.0000 </r>
       <r>   -12.6193     0.0000     2.0000 </r>
       <r>   -12.5307     0.0000     2.0000 </r>
       <r>   -12.4420     0.0000     2.0000 </r>
       <r>   -12.3533     0.0000     2.0000 </r>
       <r>   -12.2646     0.0000     2.0000 </r>
       <r>   -12.1759     0.0000     2.0000 </r>
       <r>   -12.0872     0.0000     2.0000 </r>
       <r>   -11.9985     0.0000     2.0000 </r>
       <r>   -11.9098     0.0000     2.0000 </r>
       <r>   -11.8211     0.0000     2.0000 </r>
       <r>   -11.7324     0.0000     2.0000 </r>
       <r>   -11.6437     0.0000     2.0000 </r>
       <r>   -11.5550     0.0000     2.0000 </r>
       <r>   -11.4663     0.0000     2.0000 </r>
       <r>   -11.3776     0.0000     2.0000 </r>
       <r>   -11.2889     0.0000     2.0000 </r>
       <r>   -11.2002     0.0000     2.0000 </r>
       <r>   -11.1115     0.0000     2.0000 </r>
       <r>   -11.0229     0.0000     2.0000 </r>
       <r>   -10.9342     0.0000     2.0000 </r>
       <r>   -10.8455     0.0000     2.0000 </r>
       <r>   -10.7568     0.0000     2.0000 </r>
       <r>   -10.6681     0.0000     2.0000 </r>
       <r>   -10.5794     0.0000     2.0000 </r>
       <r>   -10.4907     0.0000     2.0000 </r>
       <r>   -10.4020     0.0000     2.0000 </r>
       <r>   -10.3133     0.0000     2.0000 </r>
       <r>   -10.2246     0.0000     2.0000 </r>
       <r>   -10.1359     0.0000     2.0000 </r>
       <r>   -10.0472     0.0000     2.0000 </r>
       <r>    -9.9585     0.0000     2.0000 </r>
       <r>    -9.8698     0.0000     2.0000 </r>
       <r>    -9.7811     0.0000     2.0000 </r>
       <r>    -9.6924     0.0000     2.0000 </r>
       <r>    -9.6037     0.0000     2.0000 </r>
       <r>    -9.5151     0.0000     2.0000 </r>
       <r>    -9.4264     0.0000     2.0000 </r>
       <r>    -9.3377     0.0000     2.0000 </r>
       <r>    -9.2490     0.0000     2.0000 </r>
       <r>    -9.1603     0.0000     2.0000 </r>
       <r>    -9.0716    -0.0000     2.0000 </r>
       <r>    -8.9829    -0.0000     2.0000 </r>
       <r>    -8.8942    -0.0000     2.0000 </r>
       <r>    -8.8055    -0.0000     2.0000 </r>
       <r>    -8.7168    -0.0000     2.0000 </r>
       <r>    -8.6281    -0.0000     2.0000 </r>
       <r>    -8.5394    -0.0001     2.0000 </r>
       <r>    -8.4507    -0.0121     1.9989 </r>
       <r>    -8.3620    -0.2333     1.9782 </r>
       <r>    -8.2733     0.5455     2.0266 </r>
       <r>    -8.1846     6.7131     2.6220 </r>
       <r>    -8.0959     4.5768     3.0280 </r>
       <r>    -8.0073    -0.3126     3.0002 </r>
       <r>    -7.9186    -0.3245     2.9714 </r>
       <r>    -7.8299     4.5150     3.3719 </r>
       <r>    -7.7412     6.7553     3.9711 </r>
       <r>    -7.6525     0.5757     4.0221 </r>
       <r>    -7.5638    -0.2368     4.0011 </r>
       <r>    -7.4751    -0.0127     4.0000 </r>
       <r>    -7.3864    -0.0194     3.9983 </r>
       <r>    -7.2977    -0.4141     3.9615 </r>
       <r>    -7.2090     0.2443     3.9832 </r>
       <r>    -7.1203    13.8752     5.2139 </r>
       <r>    -7.0316    18.3317     6.8398 </r>
       <r>    -6.9429     2.4021     7.0528 </r>
       <r>    -6.8542     4.7680     7.4757 </r>
       <r>    -6.7655     7.6989     8.1585 </r>
       <r>    -6.6768     7.6610     8.8380 </r>
       <r>    -6.5881     2.1175     9.0258 </r>
       <r>    -6.4995    -0.9810     8.9388 </r>
       <r>    -6.4108     4.9107     9.3744 </r>
       <r>    -6.3221    14.2185    10.6355 </r>
       <r>    -6.2334     5.8002    11.1499 </r>
       <r>    -6.1447    16.1255    12.5802 </r>
       <r>    -6.0560    29.7203    15.2162 </r>
       <r>    -5.9673    32.4089    18.0907 </r>
       <r>    -5.8786    30.8592    20.8277 </r>
       <r>    -5.7899    37.8760    24.1871 </r>
       <r>    -5.7012    55.2299    29.0856 </r>
       <r>    -5.6125    32.8509    31.9993 </r>
       <r>    -5.5238    37.9099    35.3617 </r>
       <r>    -5.4351    53.3340    40.0921 </r>
       <r>    -5.3464    49.2744    44.4625 </r>
       <r>    -5.2577    87.1551    52.1926 </r>
       <r>    -5.1690    92.3381    60.3825 </r>
       <r>    -5.0803    56.5316    65.3965 </r>
       <r>    -4.9917    52.3069    70.0358 </r>
       <r>    -4.9030    54.2207    74.8449 </r>
       <r>    -4.8143    47.7881    79.0834 </r>
       <r>    -4.7256    35.5629    82.2376 </r>
       <r>    -4.6369    64.0952    87.9225 </r>
       <r>    -4.5482    75.5238    94.6210 </r>
       <r>    -4.4595    52.7811    99.3024 </r>
       <r>    -4.3708    67.9086   105.3255 </r>
       <r>    -4.2821    79.9740   112.4187 </r>
       <r>    -4.1934    67.4028   118.3969 </r>
       <r>    -4.1047    73.3613   124.9037 </r>
       <r>    -4.0160    76.3404   131.6746 </r>
       <r>    -3.9273    68.3045   137.7328 </r>
       <r>    -3.8386    76.9596   144.5587 </r>
       <r>    -3.7499    92.0333   152.7215 </r>
       <r>    -3.6612   101.8640   161.7563 </r>
       <r>    -3.5725   103.9058   170.9721 </r>
       <r>    -3.4839   106.0919   180.3818 </r>
       <r>    -3.3952   125.2985   191.4951 </r>
       <r>    -3.3065    99.0916   200.2839 </r>
       <r>    -3.2178    81.1363   207.4802 </r>
       <r>    -3.1291    89.1422   215.3866 </r>
       <r>    -3.0404    83.2472   222.7702 </r>
       <r>    -2.9517    64.4966   228.4906 </r>
       <r>    -2.8630    72.3933   234.9115 </r>
       <r>    -2.7743    92.5706   243.1220 </r>
       <r>    -2.6856    82.2605   250.4180 </r>
       <r>    -2.5969    69.0628   256.5435 </r>
       <r>    -2.5082    73.1831   263.0344 </r>
       <r>    -2.4195    76.3451   269.8058 </r>
       <r>    -2.3308    79.8132   276.8847 </r>
       <r>    -2.2421    80.7380   284.0457 </r>
       <r>    -2.1534    95.4183   292.5088 </r>
       <r>    -2.0647    94.4916   300.8896 </r>
       <r>    -1.9761    96.8887   309.4831 </r>
       <r>    -1.8874    76.1533   316.2374 </r>
       <r>    -1.7987    66.1134   322.1013 </r>
       <r>    -1.7100    69.4528   328.2613 </r>
       <r>    -1.6213   107.9915   337.8396 </r>
       <r>    -1.5326   139.9238   350.2500 </r>
       <r>    -1.4439   117.8385   360.7016 </r>
       <r>    -1.3552    87.3885   368.4524 </r>
       <r>    -1.2665    64.0444   374.1328 </r>
       <r>    -1.1778    36.3141   377.3536 </r>
       <r>    -1.0891    15.7665   378.7520 </r>
       <r>    -1.0004    18.6833   380.4091 </r>
       <r>    -0.9117    26.3150   382.7431 </r>
       <r>    -0.8230    28.0470   385.2307 </r>
       <r>    -0.7343    27.0021   387.6257 </r>
       <r>    -0.6456    15.5092   389.0012 </r>
       <r>    -0.5569     9.7808   389.8687 </r>
       <r>    -0.4683    20.8416   391.7173 </r>
       <r>    -0.3796    19.7281   393.4670 </r>
       <r>    -0.2909     8.7963   394.2472 </r>
       <r>    -0.2022    13.7673   395.4683 </r>
       <r>    -0.1135     6.4411   396.0396 </r>
       <r>    -0.0248     5.0582   396.4882 </r>
       <r>     0.0639    15.0733   397.8251 </r>
       <r>     0.1526    12.5496   398.9382 </r>
       <r>     0.2413     0.7537   399.0050 </r>
       <r>     0.3300     5.3908   399.4832 </r>
       <r>     0.4187    18.3385   401.1097 </r>
       <r>     0.5074    25.5401   403.3749 </r>
       <r>     0.5961     7.7157   404.0593 </r>
       <r>     0.6848    -0.1012   404.0503 </r>
       <r>     0.7735    10.2219   404.9569 </r>
       <r>     0.8622    18.3658   406.5859 </r>
       <r>     0.9509    18.2577   408.2052 </r>
       <r>     1.0396    17.7964   409.7837 </r>
       <r>     1.1282    10.2518   410.6929 </r>
       <r>     1.2169     5.2221   411.1561 </r>
       <r>     1.3056    14.2977   412.4242 </r>
       <r>     1.3943    13.9780   413.6640 </r>
       <r>     1.4830     9.8228   414.5352 </r>
       <r>     1.5717     6.0550   415.0723 </r>
       <r>     1.6604     6.6032   415.6579 </r>
       <r>     1.7491     6.4741   416.2321 </r>
       <r>     1.8378    11.4815   417.2505 </r>
       <r>     1.9265    20.7305   419.0892 </r>
       <r>     2.0152     9.9050   419.9677 </r>
       <r>     2.1039     4.2465   420.3443 </r>
       <r>     2.1926    22.6466   422.3529 </r>
       <r>     2.2813    17.9360   423.9438 </r>
       <r>     2.3700     1.5310   424.0795 </r>
       <r>     2.4587    11.8091   425.1269 </r>
       <r>     2.5474     9.6756   425.9851 </r>
       <r>     2.6360     3.0018   426.2514 </r>
       <r>     2.7247    12.7652   427.3836 </r>
       <r>     2.8134    13.9593   428.6217 </r>
       <r>     2.9021    21.7326   430.5492 </r>
       <r>     2.9908    25.4210   432.8039 </r>
       <r>     3.0795    10.5916   433.7433 </r>
       <r>     3.1682     8.7393   434.5185 </r>
       <r>     3.2569     9.3895   435.3513 </r>
       <r>     3.3456     6.3567   435.9151 </r>
       <r>     3.4343     4.7106   436.3329 </r>
       <r>     3.5230    14.6546   437.6326 </r>
       <r>     3.6117    20.3595   439.4384 </r>
       <r>     3.7004    16.1099   440.8673 </r>
       <r>     3.7891     1.5882   441.0081 </r>
       <r>     3.8778     0.6955   441.0698 </r>
       <r>     3.9665    13.4711   442.2646 </r>
       <r>     4.0552    26.2480   444.5927 </r>
       <r>     4.1438    22.5964   446.5968 </r>
       <r>     4.2325     4.5328   446.9989 </r>
       <r>     4.3212     5.7501   447.5089 </r>
       <r>     4.4099    14.0621   448.7561 </r>
       <r>     4.4986     9.6515   449.6121 </r>
       <r>     4.5873    18.1963   451.2260 </r>
       <r>     4.6760    10.6146   452.1675 </r>
       <r>     4.7647     6.8157   452.7720 </r>
       <r>     4.8534    10.9245   453.7409 </r>
       <r>     4.9421    16.5032   455.2047 </r>
       <r>     5.0308     9.1356   456.0149 </r>
       <r>     5.1195     8.3859   456.7587 </r>
       <r>     5.2082    14.9117   458.0813 </r>
       <r>     5.2969    18.8201   459.7505 </r>
       <r>     5.3856    16.0032   461.1699 </r>
       <r>     5.4743     8.7109   461.9425 </r>
       <r>     5.5630    13.3208   463.1240 </r>
       <r>     5.6516    17.7050   464.6943 </r>
       <r>     5.7403    18.2388   466.3120 </r>
       <r>     5.8290    21.2289   468.1949 </r>
       <r>     5.9177    31.8356   471.0185 </r>
       <r>     6.0064    26.9730   473.4109 </r>
       <r>     6.0951    23.9101   475.5316 </r>
       <r>     6.1838    23.4073   477.6076 </r>
       <r>     6.2725     9.0945   478.4143 </r>
       <r>     6.3612    -0.7385   478.3488 </r>
       <r>     6.4499    -0.7487   478.2824 </r>
       <r>     6.5386     2.6221   478.5149 </r>
       <r>     6.6273    16.1154   479.9443 </r>
       <r>     6.7160    21.7793   481.8760 </r>
       <r>     6.8047    12.3525   482.9716 </r>
       <r>     6.8934     8.3309   483.7105 </r>
       <r>     6.9821     3.2096   483.9952 </r>
       <r>     7.0708     0.1868   484.0117 </r>
       <r>     7.1594    -0.1233   484.0008 </r>
       <r>     7.2481    -0.0088   484.0000 </r>
       <r>     7.3368    -0.0001   484.0000 </r>
       <r>     7.4255    -0.0000   484.0000 </r>
       <r>     7.5142    -0.0000   484.0000 </r>
       <r>     7.6029    -0.0000   484.0000 </r>
       <r>     7.6916     0.0000   484.0000 </r>
       <r>     7.7803     0.0000   484.0000 </r>
       <r>     7.8690     0.0000   484.0000 </r>
       <r>     7.9577     0.0000   484.0000 </r>
       <r>     8.0464     0.0000   484.0000 </r>
       <r>     8.1351     0.0000   484.0000 </r>
      </set>
     </set>
    </array>
   </total>
  </dos>
 </calculation>
 <structure name="finalpos" >
  <crystal>
   <varray name="basis" >
    <v>       8.80347943       0.00000000       0.00000000 </v>
    <v>       4.40173971       7.62403682       0.00000000 </v>
    <v>       0.00000000       0.00000000      23.18801085 </v>
   </varray>
   <i name="volume">   1556.33410245 </i>
   <varray name="rec_basis" >
    <v>       0.11359145      -0.06558205       0.00000000 </v>
    <v>       0.00000000       0.13116411       0.00000000 </v>
    <v>       0.00000000       0.00000000       0.04312573 </v>
   </varray>
  </crystal>
  <varray name="positions" >
   <v>       0.00000000       0.00000000       0.00000000 </v>
   <v>       0.33333333       0.00000000       0.00000000 </v>
   <v>       0.66666667       0.00000000       0.00000000 </v>
   <v>       0.00000000       0.33333333       0.00000000 </v>
   <v>       0.33333333       0.33333333       0.00000000 </v>
   <v>       0.66666667       0.33333333       0.00000000 </v>
   <v>       0.00000000       0.66666667       0.00000000 </v>
   <v>       0.33333333       0.66666667       0.00000000 </v>
   <v>       0.66666667       0.66666667       0.00000000 </v>
   <v>       0.11111111       0.11111111       0.10332942 </v>
   <v>       0.44444444       0.11111111       0.10332942 </v>
   <v>       0.77777778       0.11111111       0.10332942 </v>
   <v>       0.11111111       0.44444444       0.10332942 </v>
   <v>       0.44444444       0.44444444       0.10332942 </v>
   <v>       0.77777778       0.44444444       0.10332942 </v>
   <v>       0.11111111       0.77777778       0.10332942 </v>
   <v>       0.44444444       0.77777778       0.10332942 </v>
   <v>       0.77777778       0.77777778       0.10332942 </v>
   <v>       0.89098493       0.22117420       0.20810853 </v>
   <v>       0.22117429       0.22117409       0.20810861 </v>
   <v>       0.55651462       0.22030101       0.20526590 </v>
   <v>       0.89048055       0.55237209       0.20679379 </v>
   <v>       0.22030092       0.55651770       0.20526593 </v>
   <v>       0.55651772       0.55651469       0.20526591 </v>
   <v>       0.89048056       0.89048051       0.20679374 </v>
   <v>       0.22117429       0.89098500       0.20810853 </v>
   <v>       0.55237247       0.89048048       0.20679375 </v>
   <v>       0.98965624       0.98965637       0.31375486 </v>
   <v>       0.35402167       0.98965551       0.31375511 </v>
   <v>       0.66727011       0.99879369       0.31002356 </v>
   <v>       0.98965537       0.35402172       0.31375510 </v>
   <v>       0.33533816       0.33533809       0.30835714 </v>
   <v>       0.66265653       0.33533825       0.30835714 </v>
   <v>       0.99879388       0.66726992       0.31002358 </v>
   <v>       0.33533787       0.66265694       0.30835720 </v>
   <v>       0.66726966       0.66726987       0.31002350 </v>
   <v>       0.11111136       0.11111142       0.36037678 </v>
  </varray>
  <varray name="selective"  type="logical" >
   <v type="logical" >  F  F  F </v>
   <v type="logical" >  F  F  F </v>
   <v type="logical" >  F  F  F </v>
   <v type="logical" >  F  F  F </v>
   <v type="logical" >  F  F  F </v>
   <v type="logical" >  F  F  F </v>
   <v type="logical" >  F  F  F </v>
   <v type="logical" >  F  F  F </v>
   <v type="logical" >  F  F  F </v>
   <v type="logical" >  F  F  F </v>
   <v type="logical" >  F  F  F </v>
   <v type="logical" >  F  F  F </v>
   <v type="logical" >  F  F  F </v>
   <v type="logical" >  F  F  F </v>
   <v type="logical" >  F  F  F </v>
   <v type="logical" >  F  F  F </v>
   <v type="logical" >  F  F  F </v>
   <v type="logical" >  F  F  F </v>
   <v type="logical" >  T  T  T </v>
   <v type="logical" >  T  T  T </v>
   <v type="logical" >  T  T  T </v>
   <v type="logical" >  T  T  T </v>
   <v type="logical" >  T  T  T </v>
   <v type="logical" >  T  T  T </v>
   <v type="logical" >  T  T  T </v>
   <v type="logical" >  T  T  T </v>
   <v type="logical" >  T  T  T </v>
   <v type="logical" >  T  T  T </v>
   <v type="logical" >  T  T  T </v>
   <v type="logical" >  T  T  T </v>
   <v type="logical" >  T  T  T </v>
   <v type="logical" >  T  T  T </v>
   <v type="logical" >  T  T  T </v>
   <v type="logical" >  T  T  T </v>
   <v type="logical" >  T  T  T </v>
   <v type="logical" >  T  T  T </v>
   <v type="logical" >  T  T  T </v>
  </varray>
  <nose>
   <v>      -3.00000000       0.00000000       0.00010000       0.00010000 </v>
  </nose>
 </structure>
</modeling>
