unknown system                          
           1
     8.803479    0.000000    0.000000
     4.401740    7.624037    0.000000
     0.000000    0.000000   23.188011
   Au   O 
    36     1
Direct configuration=     1
   0.00000000  0.00000000  0.00000000
   0.33333333  0.00000000  0.00000000
   0.66666667  0.00000000  0.00000000
   0.00000000  0.33333333  0.00000000
   0.33333333  0.33333333  0.00000000
   0.66666667  0.33333333  0.00000000
   0.00000000  0.66666667  0.00000000
   0.33333333  0.66666667  0.00000000
   0.66666667  0.66666667  0.00000000
   0.11111111  0.11111111  0.10332942
   0.44444444  0.11111111  0.10332942
   0.77777778  0.11111111  0.10332942
   0.11111111  0.44444444  0.10332942
   0.44444444  0.44444444  0.10332942
   0.77777778  0.44444444  0.10332942
   0.11111111  0.77777778  0.10332942
   0.44444444  0.77777778  0.10332942
   0.77777778  0.77777778  0.10332942
   0.89098493  0.22117420  0.20810853
   0.22117429  0.22117409  0.20810861
   0.55651462  0.22030101  0.20526590
   0.89048055  0.55237209  0.20679379
   0.22030092  0.55651770  0.20526593
   0.55651772  0.55651469  0.20526591
   0.89048056  0.89048051  0.20679374
   0.22117429  0.89098500  0.20810853
   0.55237247  0.89048048  0.20679375
   0.98965624  0.98965637  0.31375486
   0.35402167  0.98965551  0.31375511
   0.66727011  0.99879369  0.31002356
   0.98965537  0.35402172  0.31375510
   0.33533816  0.33533809  0.30835714
   0.66265653  0.33533825  0.30835714
   0.99879388  0.66726992  0.31002358
   0.33533787  0.66265694  0.30835720
   0.66726966  0.66726987  0.31002350
   0.11111136  0.11111142  0.36037678
