  37  37   0   0
  0.4206308E+02  0.8803480E-09  0.8803480E-09  0.2318801E-08  0.5000000E-15
   1.0000000000000000E-004
  CAR 
 unknown system                          
      8.28013491    -18.18121184  301      0.43981500      1.00000000
    -18.181  0.0000E+00  0.0000E+00
    -18.093  0.0000E+00  0.0000E+00
    -18.005  0.0000E+00  0.0000E+00
    -17.917  0.0000E+00  0.0000E+00
    -17.828 -0.2204E-29 -0.1944E-30
    -17.740 -0.2961E-23 -0.2612E-24
    -17.652 -0.8280E-18 -0.7303E-19
    -17.564 -0.4675E-13 -0.4123E-14
    -17.476 -0.5511E-09 -0.4862E-10
    -17.387 -0.1320E-05 -0.1165E-06
    -17.299 -0.6237E-03 -0.5513E-04
    -17.211 -0.5414E-01 -0.4830E-02
    -17.123 -0.6253E+00 -0.5999E-01
    -17.035  0.2880E+01  0.1940E+00
    -16.946  0.1492E+02  0.1510E+01
    -16.858  0.6358E+01  0.2071E+01
    -16.770 -0.6643E+00  0.2012E+01
    -16.682 -0.1350E+00  0.2000E+01
    -16.594 -0.2569E-02  0.2000E+01
    -16.505 -0.8613E-05  0.2000E+01
    -16.417 -0.5624E-08  0.2000E+01
    -16.329 -0.7384E-12  0.2000E+01
    -16.241  0.0000E+00  0.2000E+01
    -16.153  0.0000E+00  0.2000E+01
    -16.064  0.0000E+00  0.2000E+01
    -15.976  0.0000E+00  0.2000E+01
    -15.888  0.0000E+00  0.2000E+01
    -15.800  0.0000E+00  0.2000E+01
    -15.711  0.0000E+00  0.2000E+01
    -15.623  0.0000E+00  0.2000E+01
    -15.535  0.0000E+00  0.2000E+01
    -15.447  0.0000E+00  0.2000E+01
    -15.359  0.0000E+00  0.2000E+01
    -15.270  0.0000E+00  0.2000E+01
    -15.182  0.0000E+00  0.2000E+01
    -15.094  0.0000E+00  0.2000E+01
    -15.006  0.0000E+00  0.2000E+01
    -14.918  0.0000E+00  0.2000E+01
    -14.829  0.0000E+00  0.2000E+01
    -14.741  0.0000E+00  0.2000E+01
    -14.653  0.0000E+00  0.2000E+01
    -14.565  0.0000E+00  0.2000E+01
    -14.477  0.0000E+00  0.2000E+01
    -14.388  0.0000E+00  0.2000E+01
    -14.300  0.0000E+00  0.2000E+01
    -14.212  0.0000E+00  0.2000E+01
    -14.124  0.0000E+00  0.2000E+01
    -14.036  0.0000E+00  0.2000E+01
    -13.947  0.0000E+00  0.2000E+01
    -13.859  0.0000E+00  0.2000E+01
    -13.771  0.0000E+00  0.2000E+01
    -13.683  0.0000E+00  0.2000E+01
    -13.595  0.0000E+00  0.2000E+01
    -13.506  0.0000E+00  0.2000E+01
    -13.418  0.0000E+00  0.2000E+01
    -13.330  0.0000E+00  0.2000E+01
    -13.242  0.0000E+00  0.2000E+01
    -13.154  0.0000E+00  0.2000E+01
    -13.065  0.0000E+00  0.2000E+01
    -12.977  0.0000E+00  0.2000E+01
    -12.889  0.0000E+00  0.2000E+01
    -12.801  0.0000E+00  0.2000E+01
    -12.713  0.0000E+00  0.2000E+01
    -12.624  0.0000E+00  0.2000E+01
    -12.536  0.0000E+00  0.2000E+01
    -12.448  0.0000E+00  0.2000E+01
    -12.360  0.0000E+00  0.2000E+01
    -12.272  0.0000E+00  0.2000E+01
    -12.183  0.0000E+00  0.2000E+01
    -12.095  0.0000E+00  0.2000E+01
    -12.007  0.0000E+00  0.2000E+01
    -11.919  0.0000E+00  0.2000E+01
    -11.830  0.0000E+00  0.2000E+01
    -11.742  0.0000E+00  0.2000E+01
    -11.654  0.0000E+00  0.2000E+01
    -11.566  0.0000E+00  0.2000E+01
    -11.478  0.0000E+00  0.2000E+01
    -11.389  0.0000E+00  0.2000E+01
    -11.301  0.0000E+00  0.2000E+01
    -11.213  0.0000E+00  0.2000E+01
    -11.125  0.0000E+00  0.2000E+01
    -11.037  0.0000E+00  0.2000E+01
    -10.948  0.0000E+00  0.2000E+01
    -10.860  0.0000E+00  0.2000E+01
    -10.772  0.0000E+00  0.2000E+01
    -10.684  0.0000E+00  0.2000E+01
    -10.596  0.0000E+00  0.2000E+01
    -10.507  0.0000E+00  0.2000E+01
    -10.419  0.0000E+00  0.2000E+01
    -10.331  0.0000E+00  0.2000E+01
    -10.243  0.0000E+00  0.2000E+01
    -10.155  0.0000E+00  0.2000E+01
    -10.066  0.0000E+00  0.2000E+01
     -9.978  0.0000E+00  0.2000E+01
     -9.890  0.0000E+00  0.2000E+01
     -9.802  0.0000E+00  0.2000E+01
     -9.714  0.0000E+00  0.2000E+01
     -9.625  0.0000E+00  0.2000E+01
     -9.537  0.0000E+00  0.2000E+01
     -9.449  0.0000E+00  0.2000E+01
     -9.361  0.0000E+00  0.2000E+01
     -9.273  0.0000E+00  0.2000E+01
     -9.184  0.0000E+00  0.2000E+01
     -9.096 -0.1181E-30  0.2000E+01
     -9.008 -0.2004E-24  0.2000E+01
     -8.920 -0.7076E-19  0.2000E+01
     -8.832 -0.5186E-14  0.2000E+01
     -8.743 -0.7549E-10  0.2000E+01
     -8.655 -0.2295E-06  0.2000E+01
     -8.567 -0.1385E-03  0.2000E+01
     -8.479 -0.1560E-01  0.1999E+01
     -8.391 -0.2579E+00  0.1976E+01
     -8.302  0.7490E+00  0.2042E+01
     -8.214  0.6954E+01  0.2655E+01
     -8.126  0.4254E+01  0.3031E+01
     -8.038 -0.3635E+00  0.2999E+01
     -7.949 -0.2888E+00  0.2973E+01
     -7.861  0.4652E+01  0.3383E+01
     -7.773  0.6694E+01  0.3974E+01
     -7.685  0.5447E+00  0.4022E+01
     -7.597 -0.2358E+00  0.4001E+01
     -7.508 -0.1277E-01  0.4000E+01
     -7.420 -0.1664E-01  0.3999E+01
     -7.332 -0.3709E+00  0.3966E+01
     -7.244  0.4774E-01  0.3970E+01
     -7.156  0.1242E+02  0.5066E+01
     -7.067  0.1887E+02  0.6730E+01
     -6.979  0.3654E+01  0.7052E+01
     -6.891  0.4378E+01  0.7438E+01
     -6.803  0.7020E+01  0.8058E+01
     -6.715  0.7386E+01  0.8709E+01
     -6.626  0.3606E+01  0.9027E+01
     -6.538 -0.8979E+00  0.8948E+01
     -6.450  0.3533E+01  0.9259E+01
     -6.362  0.1422E+02  0.1051E+02
     -6.274  0.5577E+01  0.1101E+02
     -6.185  0.1058E+02  0.1194E+02
     -6.097  0.2993E+02  0.1458E+02
     -6.009  0.3404E+02  0.1758E+02
     -5.921  0.3245E+02  0.2044E+02
     -5.833  0.3015E+02  0.2310E+02
     -5.744  0.5501E+02  0.2795E+02
     -5.656  0.4059E+02  0.3153E+02
     -5.568  0.3016E+02  0.3419E+02
     -5.480  0.4448E+02  0.3812E+02
     -5.392  0.5218E+02  0.4272E+02
     -5.303  0.8325E+02  0.5006E+02
     -5.215  0.9799E+02  0.5871E+02
     -5.127  0.5997E+02  0.6400E+02
     -5.039  0.5298E+02  0.6867E+02
     -4.951  0.5618E+02  0.7362E+02
     -4.862  0.4848E+02  0.7790E+02
     -4.774  0.3919E+02  0.8136E+02
     -4.686  0.5035E+02  0.8580E+02
     -4.598  0.7701E+02  0.9259E+02
     -4.510  0.5945E+02  0.9783E+02
     -4.421  0.5241E+02  0.1025E+03
     -4.333  0.8135E+02  0.1096E+03
     -4.245  0.6653E+02  0.1155E+03
     -4.157  0.6785E+02  0.1215E+03
     -4.068  0.7976E+02  0.1285E+03
     -3.980  0.7195E+02  0.1349E+03
     -3.892  0.7749E+02  0.1417E+03
     -3.804  0.8311E+02  0.1490E+03
     -3.716  0.9862E+02  0.1577E+03
     -3.627  0.1096E+03  0.1674E+03
     -3.539  0.1039E+03  0.1766E+03
     -3.451  0.1166E+03  0.1869E+03
     -3.363  0.1155E+03  0.1970E+03
     -3.275  0.8596E+02  0.2046E+03
     -3.186  0.8554E+02  0.2122E+03
     -3.098  0.9478E+02  0.2205E+03
     -3.010  0.7127E+02  0.2268E+03
     -2.922  0.5486E+02  0.2317E+03
     -2.834  0.8051E+02  0.2388E+03
     -2.745  0.9493E+02  0.2471E+03
     -2.657  0.6825E+02  0.2531E+03
     -2.569  0.7730E+02  0.2600E+03
     -2.481  0.7290E+02  0.2664E+03
     -2.393  0.7931E+02  0.2734E+03
     -2.304  0.8094E+02  0.2805E+03
     -2.216  0.8510E+02  0.2880E+03
     -2.128  0.9726E+02  0.2966E+03
     -2.040  0.9646E+02  0.3051E+03
     -1.952  0.8951E+02  0.3130E+03
     -1.863  0.6934E+02  0.3191E+03
     -1.775  0.6167E+02  0.3246E+03
     -1.687  0.8458E+02  0.3320E+03
     -1.599  0.1265E+03  0.3432E+03
     -1.511  0.1383E+03  0.3554E+03
     -1.422  0.9860E+02  0.3641E+03
     -1.334  0.8304E+02  0.3714E+03
     -1.246  0.5010E+02  0.3758E+03
     -1.158  0.2450E+02  0.3780E+03
     -1.070  0.1200E+02  0.3791E+03
     -0.981  0.2415E+02  0.3812E+03
     -0.893  0.2915E+02  0.3838E+03
     -0.805  0.2529E+02  0.3860E+03
     -0.717  0.2146E+02  0.3879E+03
     -0.629  0.1505E+02  0.3892E+03
     -0.540  0.1761E+02  0.3908E+03
     -0.452  0.1810E+02  0.3924E+03
     -0.364  0.1475E+02  0.3937E+03
     -0.276  0.1275E+02  0.3948E+03
     -0.187  0.1210E+02  0.3958E+03
     -0.099  0.3393E+01  0.3961E+03
     -0.011  0.8667E+01  0.3969E+03
      0.077  0.1564E+02  0.3983E+03
      0.165  0.8101E+01  0.3990E+03
      0.254  0.1616E+00  0.3990E+03
      0.342  0.9319E+01  0.3998E+03
      0.430  0.2152E+02  0.4017E+03
      0.518  0.2239E+02  0.4037E+03
      0.606  0.3633E+01  0.4040E+03
      0.695  0.1684E+01  0.4042E+03
      0.783  0.1401E+02  0.4054E+03
      0.871  0.1840E+02  0.4070E+03
      0.959  0.2012E+02  0.4088E+03
      1.047  0.1543E+02  0.4102E+03
      1.136  0.5341E+01  0.4106E+03
      1.224  0.1022E+02  0.4115E+03
      1.312  0.1647E+02  0.4130E+03
      1.400  0.1222E+02  0.4141E+03
      1.488  0.7597E+01  0.4147E+03
      1.577  0.5795E+01  0.4153E+03
      1.665  0.6624E+01  0.4158E+03
      1.753  0.7787E+01  0.4165E+03
      1.841  0.1550E+02  0.4179E+03
      1.929  0.1679E+02  0.4194E+03
      2.018  0.6642E+01  0.4200E+03
      2.106  0.9786E+01  0.4208E+03
      2.194  0.2642E+02  0.4232E+03
      2.282  0.1005E+02  0.4240E+03
      2.370  0.4513E+01  0.4244E+03
      2.459  0.1303E+02  0.4256E+03
      2.547  0.4544E+01  0.4260E+03
      2.635  0.3136E+01  0.4263E+03
      2.723  0.1525E+02  0.4276E+03
      2.811  0.1780E+02  0.4292E+03
      2.900  0.2646E+02  0.4315E+03
      2.988  0.1923E+02  0.4332E+03
      3.076  0.1311E+02  0.4344E+03
      3.164  0.1072E+02  0.4353E+03
      3.252  0.4103E+01  0.4357E+03
      3.341  0.2796E+01  0.4359E+03
      3.429  0.1129E+02  0.4369E+03
      3.517  0.1670E+02  0.4384E+03
      3.605  0.1521E+02  0.4397E+03
      3.694  0.1223E+02  0.4408E+03
      3.782  0.2004E+01  0.4410E+03
      3.870  0.8597E+00  0.4411E+03
      3.958  0.1520E+02  0.4424E+03
      4.046  0.2790E+02  0.4449E+03
      4.135  0.1972E+02  0.4466E+03
      4.223  0.5672E+01  0.4471E+03
      4.311  0.1049E+02  0.4480E+03
      4.399  0.1170E+02  0.4491E+03
      4.487  0.1417E+02  0.4503E+03
      4.576  0.1424E+02  0.4516E+03
      4.664  0.5764E+01  0.4521E+03
      4.752  0.7722E+01  0.4528E+03
      4.840  0.1761E+02  0.4543E+03
      4.928  0.1727E+02  0.4558E+03
      5.017  0.3339E+01  0.4561E+03
      5.105  0.6195E+01  0.4567E+03
      5.193  0.1558E+02  0.4581E+03
      5.281  0.2117E+02  0.4599E+03
      5.369  0.1342E+02  0.4611E+03
      5.458  0.1248E+02  0.4622E+03
      5.546  0.1732E+02  0.4637E+03
      5.634  0.1120E+02  0.4647E+03
      5.722  0.1698E+02  0.4662E+03
      5.810  0.1995E+02  0.4680E+03
      5.899  0.2868E+02  0.4705E+03
      5.987  0.3073E+02  0.4732E+03
      6.075  0.2277E+02  0.4752E+03
      6.163  0.1999E+02  0.4770E+03
      6.251  0.9586E+01  0.4778E+03
      6.340  0.1845E+01  0.4780E+03
      6.428  0.2538E+01  0.4782E+03
      6.516  0.4238E+01  0.4786E+03
      6.604  0.9615E+01  0.4794E+03
      6.692  0.1722E+02  0.4810E+03
      6.781  0.1296E+02  0.4821E+03
      6.869  0.1012E+02  0.4830E+03
      6.957  0.6710E+01  0.4836E+03
      7.045  0.2064E+01  0.4838E+03
      7.133  0.2229E+01  0.4840E+03
      7.222  0.4564E+00  0.4840E+03
      7.310 -0.1049E+00  0.4840E+03
      7.398 -0.9107E-02  0.4840E+03
      7.486 -0.1054E-03  0.4840E+03
      7.574 -0.2240E-06  0.4840E+03
      7.663 -0.9389E-10  0.4840E+03
      7.751 -0.8391E-14  0.4840E+03
      7.839  0.0000E+00  0.4840E+03
      7.927  0.0000E+00  0.4840E+03
      8.016  0.0000E+00  0.4840E+03
      8.104  0.0000E+00  0.4840E+03
      8.192  0.0000E+00  0.4840E+03
      8.280  0.0000E+00  0.4840E+03
