       N       E                     dE             d eps       ncg     rms          rms(c)
DAV:   1     0.247445876704E+04    0.24745E+04   -0.15921E+05  2904   0.117E+03
DAV:   2     0.337317110371E+02   -0.24407E+04   -0.22561E+04  3368   0.271E+02
DAV:   3    -0.122776489034E+03   -0.15651E+03   -0.14937E+03  3296   0.621E+01
DAV:   4    -0.126978292308E+03   -0.42018E+01   -0.41684E+01  3232   0.102E+01
DAV:   5    -0.127125261348E+03   -0.14697E+00   -0.14666E+00  3464   0.190E+00    0.447E+01
RMM:   6    -0.121476225391E+03    0.56490E+01   -0.30325E+01  3124   0.116E+01    0.379E+01
RMM:   7    -0.134006617168E+03   -0.12530E+02   -0.38274E+01  3353   0.789E+00    0.323E+01
RMM:   8    -0.137277076793E+03   -0.32705E+01   -0.33977E+01  3420   0.842E+00    0.267E+01
RMM:   9    -0.118567475567E+03    0.18710E+02   -0.13699E+01  3280   0.609E+00    0.124E+01
RMM:  10    -0.115232032273E+03    0.33354E+01   -0.61025E+00  3280   0.442E+00    0.427E+00
RMM:  11    -0.115266862443E+03   -0.34830E-01   -0.17421E+00  3281   0.188E+00    0.651E+00
RMM:  12    -0.115100929651E+03    0.16593E+00   -0.95356E-01  3245   0.155E+00    0.266E+00
RMM:  13    -0.114989685899E+03    0.11124E+00   -0.64587E-02  3168   0.526E-01    0.190E+00
RMM:  14    -0.114911953758E+03    0.77732E-01   -0.45460E-02  3276   0.386E-01    0.546E-01
RMM:  15    -0.114909841222E+03    0.21125E-02   -0.14881E-02  3322   0.179E-01    0.213E-01
RMM:  16    -0.114912491090E+03   -0.26499E-02   -0.23955E-03  3258   0.788E-02    0.272E-01
RMM:  17    -0.114912434296E+03    0.56794E-04   -0.17626E-03  3225   0.536E-02    0.525E-02
RMM:  18    -0.114912648006E+03   -0.21371E-03   -0.23945E-04  2133   0.236E-02    0.311E-02
RMM:  19    -0.114913291268E+03   -0.64326E-03   -0.20269E-04  2085   0.205E-02    0.180E-02
RMM:  20    -0.114913542332E+03   -0.25106E-03   -0.79983E-05  1943   0.123E-02    0.299E-02
RMM:  21    -0.114913668336E+03   -0.12600E-03   -0.31891E-05  1575   0.789E-03    0.149E-02
RMM:  22    -0.114913723559E+03   -0.55223E-04   -0.13486E-05  1113   0.560E-03
   1 F= -.11491372E+03 E0= -.11490409E+03  d E =-.288992E-01
