 vasp.6.4.3 19Mar24 (build Oct  2 2024 09:01:45) complex                         
 executed on             LinuxGNU date 2025.02.17  19:35:48
 running   48 mpi-ranks, with    1 threads/rank, on    1 nodes
 distrk:  each k-point on   48 cores,    1 groups
 distr:  one band on NCORE=  24 cores,    2 groups


--------------------------------------------------------------------------------------------------------


 INCAR:
   ENCUT = 400.000000
   SIGMA = 0.100000
   EDIFF = 1.00e-04
   EDIFFG = -3.00e-02
   ALGO = Fast
   GGA = PE
   PREC = Accurate
   IBRION = -1
   ICHARG = 2
   IDIPOL = 3
   ISMEAR = 1
   ISYM = 0
   NPAR = 2
   LCHARG = .FALSE.
   LDIPOL = .TRUE.
   LWAVE = .FALSE.
   LREAL = Auto

 POTCAR:    PAW_PBE Au 04Oct2007                  
 POTCAR:    PAW_PBE O 08Apr2002                   
 POTCAR:    PAW_PBE Au 04Oct2007                  
   SHA256 =  d0044ae04e2bdce24051b198fc5c053d722a5bc6fe3c3b100514a13fc5d2db88 Au/POTCAR             
   COPYR  = (c) Copyright 04Oct2007 Georg Kresse                                                    
   COPYR  = This file is part of the software VASP. Any use, copying, and all other rights are regul
   COPYR  = If you do not have a valid VASP license, you may not use, copy or distribute this file. 
   VRHFIN =Au: s1d10                                                                                
   LEXCH  = PE                                                                                      
   EATOM  =   926.0867 eV,   68.0654 Ry                                                             
                                                                                                    
   TITEL  = PAW_PBE Au 04Oct2007                                                                    
   LULTRA =        F    use ultrasoft PP ?                                                          
   IUNSCR =        1    unscreen: 0-lin 1-nonlin 2-no                                               
   RPACOR =    2.330    partial core radius                                                         
   POMASS =  196.966; ZVAL   =   11.000    mass and valenz                                          
   RCORE  =    2.500    outmost cutoff radius                                                       
   RWIGS  =    2.840; RWIGS  =    1.503    wigner-seitz radius (au A)                               
   ENMAX  =  229.943; ENMIN  =  172.457 eV                                                          
   ICORE  =        3    local potential                                                             
   LCOR   =        T    correct aug charges                                                         
   LPAW   =        T    paw PP                                                                      
   EAUG   =  356.670                                                                                
   DEXC   =    0.000                                                                                
   RMAX   =    2.562    core radius for proj-oper                                                   
   RAUG   =    1.300    factor for augmentation sphere                                              
   RDEP   =    2.598    radius for radial grids                                                     
   RDEPT  =    2.193    core radius for aug-charge                                                  
                                                                                                    
   Atomic configuration                                                                             
   16 entries                                                                                       
     n  l   j            E        occ.                                                              
     1  0  0.50    -80748.5001   2.0000                                                             
     2  0  0.50    -14244.7466   2.0000                                                             
     2  1  1.50    -12310.9591   6.0000                                                             
     3  0  0.50     -3362.1768   2.0000                                                             
     3  1  1.50     -2801.5463   6.0000                                                             
     3  2  2.50     -2203.8206  10.0000                                                             
     4  0  0.50      -729.8168   2.0000                                                             
     4  1  1.50      -546.0527   6.0000                                                             
     4  2  2.50      -325.7302  10.0000                                                             
     4  3  3.50       -81.1472  14.0000                                                             
     5  0  0.50      -108.3201   2.0000                                                             
     5  1  1.50       -59.7479   6.0000                                                             
     5  2  2.50        -6.8783  10.0000                                                             
     6  0  0.50        -5.7602   1.0000                                                             
     6  1  1.50        -6.8029   0.0000                                                             
     5  3  2.50        -1.3606   0.0000                                                             
   Description                                                                                      
     l       E           TYP  RCUT    TYP  RCUT                                                     
     2     -6.8782861     23  2.500                                                                 
     2     -8.2388687     23  2.500                                                                 
     0     -5.7601759     23  2.500                                                                 
     0     -0.8493231     23  2.500                                                                 
     1     -2.7211652     23  2.500                                                                 
     1     27.2116520     23  2.500                                                                 
     3     -1.3605826     23  2.500                                                                 
  local pseudopotential read in
  partial core-charges read in
  partial kinetic energy density read in
  atomic valenz-charges read in
  non local Contribution for L=           2  read in
    real space projection operators read in
  non local Contribution for L=           2  read in
    real space projection operators read in
  non local Contribution for L=           0  read in
    real space projection operators read in
  non local Contribution for L=           0  read in
    real space projection operators read in
  non local Contribution for L=           1  read in
    real space projection operators read in
  non local Contribution for L=           1  read in
    real space projection operators read in
    PAW grid and wavefunctions read in

   number of l-projection  operators is LMAX  =           6
   number of lm-projection operators is LMMAX =          18

 POTCAR:    PAW_PBE O 08Apr2002                   
   SHA256 =  818f92134a0a090dccd8ba1447fa70422a3b330e708bb4f08108d8ae51209ddf O/POTCAR              
   COPYR  = (c) Copyright 08Apr2002 Georg Kresse                                                    
   COPYR  = This file is part of the software VASP. Any use, copying, and all other rights are regul
   COPYR  = If you do not have a valid VASP license, you may not use, copy or distribute this file. 
   VRHFIN =O: s2p4                                                                                  
   LEXCH  = PE                                                                                      
   EATOM  =   432.3788 eV,   31.7789 Ry                                                             
                                                                                                    
   TITEL  = PAW_PBE O 08Apr2002                                                                     
   LULTRA =        F    use ultrasoft PP ?                                                          
   IUNSCR =        1    unscreen: 0-lin 1-nonlin 2-no                                               
   RPACOR =    1.200    partial core radius                                                         
   POMASS =   16.000; ZVAL   =    6.000    mass and valenz                                          
   RCORE  =    1.520    outmost cutoff radius                                                       
   RWIGS  =    1.550; RWIGS  =    0.820    wigner-seitz radius (au A)                               
   ENMAX  =  400.000; ENMIN  =  300.000 eV                                                          
   ICORE  =        2    local potential                                                             
   LCOR   =        T    correct aug charges                                                         
   LPAW   =        T    paw PP                                                                      
   EAUG   =  605.392                                                                                
   DEXC   =    0.000                                                                                
   RMAX   =    1.553    core radius for proj-oper                                                   
   RAUG   =    1.300    factor for augmentation sphere                                              
   RDEP   =    1.550    radius for radial grids                                                     
   RDEPT  =    1.329    core radius for aug-charge                                                  
                                                                                                    
   Atomic configuration                                                                             
    4 entries                                                                                       
     n  l   j            E        occ.                                                              
     1  0  0.50      -514.6923   2.0000                                                             
     2  0  0.50       -23.9615   2.0000                                                             
     2  1  0.50        -9.0305   4.0000                                                             
     3  2  1.50        -9.5241   0.0000                                                             
   Description                                                                                      
     l       E           TYP  RCUT    TYP  RCUT                                                     
     0    -23.9615318     23  1.200                                                                 
     0     -9.5240782     23  1.200                                                                 
     1     -9.0304911     23  1.520                                                                 
     1      8.1634956     23  1.520                                                                 
     2     -9.5240782      7  1.500                                                                 
  local pseudopotential read in
  partial core-charges read in
  partial kinetic energy density read in
  kinetic energy density of atom read in
  atomic valenz-charges read in
  non local Contribution for L=           0  read in
    real space projection operators read in
  non local Contribution for L=           0  read in
    real space projection operators read in
  non local Contribution for L=           1  read in
    real space projection operators read in
  non local Contribution for L=           1  read in
    real space projection operators read in
    PAW grid and wavefunctions read in

   number of l-projection  operators is LMAX  =           4
   number of lm-projection operators is LMMAX =           8

 Optimization of the real space projectors (new method)

 maximal supplied QI-value         = 15.12
 optimisation between [QCUT,QGAM] = [ 10.13, 20.41] = [ 28.73,116.64] Ry 
 Optimized for a Real-space Cutoff    1.55 Angstroem

   l    n(q)    QCUT    max X(q) W(low)/X(q) W(high)/X(q)  e(spline) 
   2      9    10.129    60.898    0.14E-03    0.27E-03    0.16E-06
   2      9    10.129    58.894    0.14E-03    0.27E-03    0.17E-06
   0      9    10.129   109.617    0.51E-04    0.23E-04    0.60E-07
   0      9    10.129    75.026    0.50E-04    0.22E-04    0.58E-07
   1      9    10.129    16.344    0.46E-04    0.82E-04    0.13E-06
   1      9    10.129    10.160    0.41E-04    0.64E-04    0.11E-06
 Optimization of the real space projectors (new method)

 maximal supplied QI-value         = 24.76
 optimisation between [QCUT,QGAM] = [ 10.15, 20.30] = [ 28.85,115.39] Ry 
 Optimized for a Real-space Cutoff    1.51 Angstroem

   l    n(q)    QCUT    max X(q) W(low)/X(q) W(high)/X(q)  e(spline) 
   0      9    10.150    20.381    0.17E-03    0.18E-03    0.41E-06
   0      9    10.150    15.268    0.18E-03    0.20E-03    0.43E-06
   1      9    10.150     5.964    0.16E-03    0.20E-03    0.36E-06
   1      9    10.150     5.382    0.13E-03    0.16E-03    0.33E-06
  PAW_PBE Au 04Oct2007                  :
 energy of atom  1       EATOM= -926.0867
 kinetic energy error for atom=    0.0062 (will be added to EATOM!!)
  PAW_PBE O 08Apr2002                   :
 energy of atom  2       EATOM= -432.3788
 kinetic energy error for atom=    0.1156 (will be added to EATOM!!)


 POSCAR: Au O
  positions in cartesian coordinates
  No initial velocities read in


 exchange-correlation table for PE
   RHO(1)=    0.500       N(1)  =     2000
   RHO(2)=  100.500       N(2)  =     4000



--------------------------------------------------------------------------------------------------------


 ion  position               nearest neighbor table
   1  0.000  0.000  0.000-  12 2.93  16 2.93  10 2.93   8 2.93   6 2.93   4 2.93   7 2.93   3 2.93
                             2 2.93
   2  0.333  0.000  0.000-  10 2.93  11 2.93  17 2.93   3 2.93   9 2.93   4 2.93   5 2.93   8 2.93
                             1 2.93
   3  0.667  0.000  0.000-  11 2.93  18 2.93   2 2.93  12 2.93   5 2.93   7 2.93   9 2.93   6 2.93
                             1 2.93
   4  0.000  0.333  0.000-  10 2.93  13 2.93  15 2.93   7 2.93   9 2.93   2 2.93   1 2.93   6 2.93
                             5 2.93
   5  0.333  0.333  0.000-  14 2.93  11 2.93  13 2.93   8 2.93   6 2.93   3 2.93   7 2.93   2 2.93
                             4 2.93
   6  0.667  0.333  0.000-  12 2.93  14 2.93  15 2.93   9 2.93   8 2.93   5 2.93   1 2.93   3 2.93
                             4 2.93
   7  0.000  0.667  0.000-  13 2.93  18 2.93   4 2.93  16 2.93   5 2.93   3 2.93   1 2.93   9 2.93
                             8 2.93
   8  0.333  0.667  0.000-  14 2.93  16 2.93  17 2.93   6 2.93   5 2.93   9 2.93   1 2.93   2 2.93
                             7 2.93
   9  0.667  0.667  0.000-  15 2.93  17 2.93   6 2.93   8 2.93  18 2.93   4 2.93   2 2.93   3 2.93
                             7 2.93
  10  0.111  0.111  0.103-  26 2.93   4 2.93   2 2.93  13 2.93  11 2.93   1 2.93  17 2.93  15 2.93
                            16 2.93  12 2.93  19 2.94  20 2.96
  11  0.444  0.111  0.103-  21 2.90  27 2.92   5 2.93   2 2.93   3 2.93  13 2.93  14 2.93  10 2.93
                            18 2.93  17 2.93  12 2.93  20 2.97
  12  0.778  0.111  0.103-  25 2.90  21 2.91   1 2.93   6 2.93  15 2.93   3 2.93  14 2.93  16 2.93
                            18 2.93  10 2.93  11 2.93  19 2.96
  13  0.111  0.444  0.103-  23 2.90  22 2.93   7 2.93   5 2.93   4 2.93  10 2.93  11 2.93  14 2.93
                            18 2.93  16 2.93  15 2.93  20 2.96
  14  0.444  0.444  0.103-  24 2.90  21 2.92  23 2.92   5 2.93   8 2.93   6 2.93  11 2.93  13 2.93
                            16 2.93  12 2.93  17 2.93  15 2.93
  15  0.778  0.444  0.103-  24 2.90  22 2.93   9 2.93   6 2.93   4 2.93  12 2.93  10 2.93  17 2.93
                            18 2.93  13 2.93  14 2.93  19 2.94
  16  0.111  0.778  0.103-  23 2.90  25 2.91   1 2.93   8 2.93  17 2.93   7 2.93  14 2.93  12 2.93
                            10 2.93  13 2.93  18 2.93  26 2.96
  17  0.444  0.778  0.103-  24 2.89  27 2.93   9 2.93   2 2.93   8 2.93  16 2.93  10 2.93  15 2.93
                            11 2.93  14 2.93  18 2.93  26 2.95
  18  0.778  0.778  0.103-  25 2.92   7 2.93   3 2.93   9 2.93  13 2.93  11 2.93  15 2.93  12 2.93
                            17 2.93  16 2.93  22 2.94  27 2.95
  19  0.890  0.223  0.207-  20 2.90  22 2.91  33 2.91  26 2.92  25 2.93  28 2.93  24 2.94  10 2.94
                            15 2.94  12 2.96  21 2.96  31 3.06
  20  0.220  0.222  0.208-  19 2.90  26 2.90  22 2.91  27 2.91  32 2.92  23 2.94  21 2.94  10 2.96
                            13 2.96  11 2.97  29 3.03  31 3.04
  21  0.555  0.221  0.205-  11 2.90  32 2.91  27 2.91  12 2.91  14 2.92  25 2.93  30 2.94  33 2.94
                            20 2.94  24 2.95  23 2.95  19 2.96
  22  0.890  0.553  0.207-  31 2.89  36 2.89  19 2.91  20 2.91  23 2.91  13 2.93  15 2.93  24 2.94
                            18 2.94  25 2.97  34 2.98  27 2.99
  23  0.219  0.557  0.205-  13 2.90  32 2.90  16 2.90  22 2.91  14 2.92  25 2.92  20 2.94  35 2.94
                            34 2.95  24 2.95  21 2.95  26 2.96
  24  0.554  0.556  0.205-  17 2.89  14 2.90  15 2.90  36 2.93  33 2.94  35 2.94  19 2.94  22 2.94
                            26 2.95  27 2.95  21 2.95  23 2.95
  25  0.889  0.891  0.205-  12 2.90  16 2.91  18 2.92  34 2.92  23 2.92  21 2.93  26 2.93  19 2.93
                            30 2.93  22 2.97  27 2.97  28 2.98
  26  0.221  0.892  0.207-  20 2.90  27 2.91  35 2.91  19 2.92  25 2.93  10 2.93  28 2.94  24 2.95
                            17 2.95  16 2.96  23 2.96  29 3.05
  27  0.551  0.892  0.207-  36 2.89  29 2.89  26 2.91  20 2.91  21 2.91  11 2.92  17 2.93  24 2.95
                            18 2.95  25 2.97  30 2.98  22 2.99
  28  0.000  0.003  0.311-  37 2.60  34 2.87  30 2.87  19 2.93  26 2.94  35 2.95  33 2.95  25 2.98
                            29 3.09  31 3.09
  29  0.358  0.989  0.314-  37 2.08  36 2.77  30 2.84  27 2.89  35 2.96  32 2.99  20 3.03  26 3.05
                            28 3.09  31 3.28
  30  0.674  0.003  0.310-  29 2.84  34 2.87  28 2.87  33 2.90  25 2.93  21 2.94  36 2.97  32 2.97
                            27 2.98
  31  0.986  0.361  0.314-  37 2.08  36 2.77  34 2.84  22 2.89  33 2.95  32 3.00  20 3.04  19 3.06
                            28 3.09  29 3.28
  32  0.336  0.339  0.308-  33 2.87  35 2.87  23 2.90  21 2.91  20 2.92  34 2.97  30 2.97  29 2.99
                            31 3.00
  33  0.664  0.337  0.309-  32 2.87  30 2.90  35 2.91  19 2.91  24 2.94  21 2.94  36 2.94  28 2.95
                            31 2.95
  34  1.000  0.677  0.310-  31 2.84  30 2.87  28 2.87  35 2.90  25 2.92  23 2.95  32 2.97  36 2.97
                            22 2.98
  35  0.334  0.667  0.309-  32 2.87  34 2.90  33 2.91  26 2.91  24 2.94  36 2.94  23 2.94  28 2.95
                            29 2.96
  36  0.666  0.670  0.307-  31 2.77  29 2.77  27 2.89  22 2.89  24 2.93  35 2.94  33 2.94  30 2.97
                            34 2.97
  37  0.148  0.151  0.367-  31 2.08  29 2.08  28 2.60


IMPORTANT INFORMATION: All symmetrisations will be switched off!
NOSYMM: (Re-)initialisation of all symmetry stuff for point group C_1.


----------------------------------------------------------------------------------------

                                     Primitive cell                                     

  volume of cell :    1556.3341

  direct lattice vectors                    reciprocal lattice vectors
     8.803479426  0.000000000  0.000000000     0.113591451 -0.065582055  0.000000000
     4.401739713  7.624036824  0.000000000     0.000000000  0.131164109  0.000000000
     0.000000000  0.000000000 23.188010851     0.000000000  0.000000000  0.043125735

  length of vectors
     8.803479426  8.803479426 23.188010851     0.131164109  0.131164109  0.043125735

  position of ions in fractional coordinates (direct lattice)
     0.000000000  0.000000000  0.000000000
     0.333333333  0.000000000  0.000000000
     0.666666667  0.000000000  0.000000000
     0.000000000  0.333333333  0.000000000
     0.333333333  0.333333333  0.000000000
     0.666666667  0.333333333  0.000000000
     0.000000000  0.666666667  0.000000000
     0.333333333  0.666666667  0.000000000
     0.666666667  0.666666667  0.000000000
     0.111111111  0.111111111  0.103329416
     0.444444444  0.111111111  0.103329416
     0.777777778  0.111111111  0.103329416
     0.111111111  0.444444444  0.103329416
     0.444444444  0.444444444  0.103329416
     0.777777778  0.444444444  0.103329416
     0.111111111  0.777777778  0.103329416
     0.444444444  0.777777778  0.103329416
     0.777777778  0.777777778  0.103329416
     0.889984814  0.223115545  0.207396403
     0.220155350  0.222474449  0.208242213
     0.554981459  0.221142256  0.205405911
     0.890295065  0.553187781  0.206655849
     0.219349328  0.556798438  0.205380210
     0.554450424  0.556167213  0.204697765
     0.889370305  0.891029370  0.205387115
     0.221208671  0.891987042  0.207370050
     0.551073326  0.892440398  0.206620924
     0.000068868  0.002879444  0.311031791
     0.358043363  0.989386287  0.313866640
     0.673973381  0.002589546  0.309882875
     0.985675808  0.361286055  0.314092919
     0.336305977  0.339474816  0.308177451
     0.663711941  0.336558616  0.308690888
     0.999847846  0.676756857  0.309920773
     0.333643309  0.666847097  0.308614792
     0.666222139  0.669505331  0.307280747
     0.147924046  0.150958526  0.366914854

  ion indices of the primitive-cell ions
   primitive index   ion index
                 1           1
                 2           2
                 3           3
                 4           4
                 5           5
                 6           6
                 7           7
                 8           8
                 9           9
                10          10
                11          11
                12          12
                13          13
                14          14
                15          15
                16          16
                17          17
                18          18
                19          19
                20          20
                21          21
                22          22
                23          23
                24          24
                25          25
                26          26
                27          27
                28          28
                29          29
                30          30
                31          31
                32          32
                33          33
                34          34
                35          35
                36          36
                37          37

----------------------------------------------------------------------------------------



 KPOINTS: KPOINTS created by Atomic Simulation Env

Automatic generation of k-mesh.
 Grid dimensions read from file:
 generate k-points for:    2    2    1

 Generating k-lattice:

  Cartesian coordinates                     Fractional coordinates (reciprocal lattice)
     0.056795725 -0.032791027  0.000000000     0.500000000  0.000000000  0.000000000
     0.000000000  0.065582055  0.000000000     0.000000000  0.500000000  0.000000000
     0.000000000  0.000000000  0.043125735     0.000000000  0.000000000  1.000000000

  Length of vectors
     0.065582055  0.065582055  0.043125735

  Shift w.r.t. Gamma in fractional coordinates (k-lattice)
     0.500000000  0.500000000  0.000000000

 
 Subroutine IBZKPT returns following result:
 ===========================================
 
 Found      6 irreducible k-points:
 
 Following reciprocal coordinates:
            Coordinates               Weight
  0.250000  0.250000  0.000000      2.000000
  0.000000  0.250000  0.000000      2.000000
 -0.250000  0.000000  0.000000      2.000000
 -0.250000  0.250000  0.000000      2.000000
  0.500000 -0.250000  0.000000      2.000000
 -0.250000  0.500000  0.000000      2.000000
 
 Following cartesian coordinates:
            Coordinates               Weight
  0.028398  0.016396  0.000000      2.000000
  0.000000  0.032791  0.000000      2.000000
 -0.028398  0.016396  0.000000      2.000000
 -0.028398  0.049187  0.000000      2.000000
  0.056796 -0.065582  0.000000      2.000000
 -0.028398  0.081978  0.000000      2.000000
 


--------------------------------------------------------------------------------------------------------




 Dimension of arrays:
   k-points           NKPTS =      6   k-points in BZ     NKDIM =      6   number of bands    NBANDS=    242
   number of dos      NEDOS =    301   number of ions     NIONS =     37
   non local maximal  LDIM  =      6   non local SUM 2l+1 LMDIM =     18
   total plane-waves  NPLWV = 576000
   max r-space proj   IRMAX =   5865   max aug-charges    IRDMAX=  22830
   dimension x,y,z NGX =    60 NGY =   60 NGZ =  160
   dimension x,y,z NGXF=   120 NGYF=  120 NGZF=  320
   support grid    NGXF=   120 NGYF=  120 NGZF=  320
   ions per type =              36   1
   NGX,Y,Z   is equivalent  to a cutoff of  11.33, 11.33, 11.47 a.u.
   NGXF,Y,Z  is equivalent  to a cutoff of  22.66, 22.66, 22.94 a.u.

 SYSTEM =  unknown system                          
 POSCAR =  Au O                                    

 Startparameter for this run:
   NWRITE =      2    write-flag & timer
   PREC   = accura    normal or accurate (medium, high low for compatibility)
   ISTART =      0    job   : 0-new  1-cont  2-samecut
   ICHARG =      2    charge: 1-file 2-atom 10-const
   ISPIN  =      1    spin polarized calculation?
   LNONCOLLINEAR =      F non collinear calculations
   LSORBIT =      F    spin-orbit coupling
   INIWAV =      1    electr: 0-lowe 1-rand  2-diag
   LASPH  =      F    aspherical Exc in radial PAW
 Electronic Relaxation 1
   ENCUT  =  400.0 eV  29.40 Ry    5.42 a.u.  14.36 14.36 37.81*2*pi/ulx,y,z
   ENINI  =  400.0     initial cutoff
   ENAUG  =  605.4 eV  augmentation charge cutoff
   NELM   =     60;   NELMIN=  2; NELMDL=  0     # of ELM steps 
   EDIFF  = 0.1E-03   stopping-criterion for ELM
   LREAL  =      T    real-space projection
   NLSPLINE    = F    spline interpolate recip. space projectors
   LCOMPAT=      F    compatible to vasp.4.4
   GGA_COMPAT  = T    GGA compatible to vasp.4.4-vasp.4.6
   LMAXPAW     = -100 max onsite density
   LMAXMIX     =    2 max onsite mixed and CHGCAR
   VOSKOWN=      0    Vosko Wilk Nusair interpolation
   ROPT   =   -0.00025  -0.00025
 Ionic relaxation
   EDIFFG = -.3E-01   stopping-criterion for IOM
   NSW    =      0    number of steps for IOM
   NBLOCK =      1;   KBLOCK =      1    inner block; outer block 
   IBRION =     -1    ionic relax: 0-MD 1-quasi-New 2-CG
   NFREE  =      0    steps in history (QN), initial steepest desc. (CG)
   ISIF   =      2    stress and relaxation
   IWAVPR =     10    prediction:  0-non 1-charg 2-wave 3-comb
   ISYM   =      0    0-nonsym 1-usesym 2-fastsym
   LCORR  =      T    Harris-Foulkes like correction to forces

   POTIM  = 0.5000    time-step for ionic-motion
   TEIN   =    0.0    initial temperature
   TEBEG  =    0.0;   TEEND  =   0.0 temperature during run
   SMASS  =  -3.00    Nose mass-parameter (am)
   estimated Nose-frequenzy (Omega)   =  0.10E-29 period in steps = 0.13E+47 mass=  -0.177E-26a.u.
   SCALEE = 1.0000    scale energy and forces
   NPACO  =    256;   APACO  = 10.0  distance and # of slots for P.C.
   PSTRESS=    0.0 pullay stress

  Mass of Ions in am
   POMASS = 196.97 16.00
  Ionic Valenz
   ZVAL   =  11.00  6.00
  Atomic Wigner-Seitz radii
   RWIGS  =  -1.00 -1.00
  virtual crystal weights 
   VCA    =   1.00  1.00
   NELECT =     402.0000    total number of electrons
   NUPDOWN=      -1.0000    fix difference up-down

 DOS related values:
   EMIN   =  10.00;   EMAX   =-10.00  energy-range for DOS
   EFERMI =   0.00;   METHOD = LEGACY      
   ISMEAR =     1;   SIGMA  =   0.10  broadening in eV -4-tet -1-fermi 0-gaus

 Electronic relaxation 2 (details)
   IALGO  =     68    algorithm
   LDIAG  =      T    sub-space diagonalisation (order eigenvalues)
   LSUBROT=      F    optimize rotation matrix (better conditioning)
   TURBO    =      0    0=normal 1=particle mesh
   IRESTART =      0    0=no restart 2=restart with 2 vectors
   NREBOOT  =      0    no. of reboots
   NMIN     =      0    reboot dimension
   EREF     =   0.00    reference energy to select bands
   IMIX   =      4    mixing-type and parameters
     AMIX     =   0.40;   BMIX     =  1.00
     AMIX_MAG =   1.60;   BMIX_MAG =  1.00
     AMIN     =   0.10
     WC   =   100.;   INIMIX=   1;  MIXPRE=   1;  MAXMIX= -45

 Intra band minimization:
   WEIMIN = 0.0000     energy-eigenvalue tresh-hold
   EBREAK =  0.10E-06  absolut break condition
   DEPER  =   0.30     relativ break condition  

   TIME   =   0.40     timestep for ELM

  volume/ion in A,a.u.               =      42.06       283.86
  Fermi-wavevector in a.u.,A,eV,Ry     =   1.042596  1.970220 14.789610  1.087006
  Thomas-Fermi vector in A             =   2.177268

 Write flags
   LWAVE        =      F    write WAVECAR
   LDOWNSAMPLE  =      F    k-point downsampling of WAVECAR
   LCHARG       =      F    write CHGCAR
   LVTOT        =      F    write LOCPOT, total local potential
   LVHAR        =      F    write LOCPOT, Hartree potential only
   WRT_POTENTIAL= false  ! write potential to hdf5 file
   LELF         =      F    write electronic localiz. function (ELF)
   LORBIT       =      0    0 simple, 1 ext, 2 COOP (PROOUT), +10 PAW based schemes


 Dipole corrections
   LMONO      =      F    monopole corrections only (constant potential shift)
   LDIPOL     =      T    correct potential (dipole corrections)
   IDIPOL     =      3    1-x, 2-y, 3-z, 4-all directions 
   EPSILON    =  1.0000000 bulk dielectric constant
   LVACPOTAV  =      F  vacuum potentials using an averaging scheme for the charge density
   VACPOTFLAT =  0.1000000 required flatness to determine vacuum potential
 Exchange correlation treatment:
   GGA     = PE    functional components
   XC_C    = 1    coefficients multiplying the functional components
   LIBXC   =     F    Libxc                    
   VOSKOWN =     0    Vosko Wilk Nusair interpolation
   LHFCALC =     F    Hartree Fock is set to
   LHFONE  =     F    Hartree Fock one center treatment
   AEXX    =    0.0000 exact exchange contribution

 Parameters of functionals:
   PE:
     No parameter

 Van der Waals corrections
   IVDW    =     0    specifies the selected vdW correction

 Linear response parameters
   LEPSILON=     F    determine dielectric tensor
   LRPA    =     F    only Hartree local field effects (RPA)
   LNABLA  =     F    use nabla operator in PAW spheres
   LVEL    =     F    velocity operator in full k-point grid
   CSHIFT  =0.1000    complex shift for real part using Kramers Kronig
   OMEGAMAX=  -1.0    maximum frequency
   DEG_THRESHOLD= 0.2000000E-02 threshold for treating states as degnerate
   RTIME   =   -0.100 relaxation time in fs
  (WPLASMAI=    0.000 imaginary part of plasma frequency in eV, 0.658/RTIME)
   DFIELD  = 0.0000000 0.0000000 0.0000000 field for delta impulse in time

  Optional k-point grid parameters
   LKPOINTS_OPT  =     F    use optional k-point grid
   KPOINTS_OPT_MODE=     1    mode for optional k-point grid

 Orbital magnetization related:
   ORBITALMAG=     F  switch on orbital magnetization
   LCHIMAG   =     F  perturbation theory with respect to B field
   DQ        =  0.001000  dq finite difference perturbation B field
   LLRAUG    =     F  two centre corrections for induced B field
   LBONE     =     F  B-component reconstruction in AE one-centre
   LVGVCALC  =     T  calculate vGv susceptibility
   LVGVAPPL  =     F  apply vGv susceptibility instead of pGv for G=0

 Random number generation:
   RANDOM_GENERATOR = DEFAULT
   PCG_SEED         = not used


--------------------------------------------------------------------------------------------------------


 Static calculation
 charge density and potential will be updated during run
 non-spin polarized calculation
 RMM-DIIS sequential band-by-band and
  variant of blocked Davidson during initial phase
 perform sub-space diagonalisation
    before iterative eigenvector-optimisation
 modified Broyden-mixing scheme, WC =      100.0
 initial mixing is a Kerker type mixing with AMIX =  0.4000 and BMIX =      1.0000
 Hartree-type preconditioning will be used
 using additional bands           41
 real space projection scheme for non local part
 use partial core corrections
 calculate Harris-corrections to forces   (improved forces if not selfconsistent)
 use gradient corrections 
 use of overlap-Matrix (Vanderbilt PP)
 Methfessel and Paxton  Order N= 1 SIGMA  =   0.10


--------------------------------------------------------------------------------------------------------


  energy-cutoff  :      400.00
  volume of cell :     1556.33
      direct lattice vectors                 reciprocal lattice vectors
     8.803479426  0.000000000  0.000000000     0.113591451 -0.065582055  0.000000000
     4.401739713  7.624036824  0.000000000     0.000000000  0.131164109  0.000000000
     0.000000000  0.000000000 23.188010851     0.000000000  0.000000000  0.043125735

  length of vectors
     8.803479426  8.803479426 23.188010851     0.131164109  0.131164109  0.043125735



 k-points in units of 2pi/SCALE and weight: KPOINTS created by Atomic Simulation Env
   0.02839786  0.01639551  0.00000000       0.167
   0.00000000  0.03279103  0.00000000       0.167
  -0.02839786  0.01639551  0.00000000       0.167
  -0.02839786  0.04918654  0.00000000       0.167
   0.05679573 -0.06558205  0.00000000       0.167
  -0.02839786  0.08197757  0.00000000       0.167

 k-points in reciprocal lattice and weights: KPOINTS created by Atomic Simulation Env
   0.25000000  0.25000000  0.00000000       0.167
   0.00000000  0.25000000  0.00000000       0.167
  -0.25000000  0.00000000  0.00000000       0.167
  -0.25000000  0.25000000  0.00000000       0.167
   0.50000000 -0.25000000  0.00000000       0.167
  -0.25000000  0.50000000  0.00000000       0.167

 position of ions in fractional coordinates (direct lattice) 
   0.00000000  0.00000000  0.00000000
   0.33333333  0.00000000  0.00000000
   0.66666667  0.00000000  0.00000000
   0.00000000  0.33333333  0.00000000
   0.33333333  0.33333333  0.00000000
   0.66666667  0.33333333  0.00000000
   0.00000000  0.66666667  0.00000000
   0.33333333  0.66666667  0.00000000
   0.66666667  0.66666667  0.00000000
   0.11111111  0.11111111  0.10332942
   0.44444444  0.11111111  0.10332942
   0.77777778  0.11111111  0.10332942
   0.11111111  0.44444444  0.10332942
   0.44444444  0.44444444  0.10332942
   0.77777778  0.44444444  0.10332942
   0.11111111  0.77777778  0.10332942
   0.44444444  0.77777778  0.10332942
   0.77777778  0.77777778  0.10332942
   0.88998481  0.22311554  0.20739640
   0.22015535  0.22247445  0.20824221
   0.55498146  0.22114226  0.20540591
   0.89029507  0.55318778  0.20665585
   0.21934933  0.55679844  0.20538021
   0.55445042  0.55616721  0.20469776
   0.88937030  0.89102937  0.20538711
   0.22120867  0.89198704  0.20737005
   0.55107333  0.89244040  0.20662092
   0.00006887  0.00287944  0.31103179
   0.35804336  0.98938629  0.31386664
   0.67397338  0.00258955  0.30988288
   0.98567581  0.36128606  0.31409292
   0.33630598  0.33947482  0.30817745
   0.66371194  0.33655862  0.30869089
   0.99984785  0.67675686  0.30992077
   0.33364331  0.66684710  0.30861479
   0.66622214  0.66950533  0.30728075
   0.14792405  0.15095853  0.36691485

 position of ions in cartesian coordinates  (Angst):
   0.00000000  0.00000000  0.00000000
   2.93449314  0.00000000  0.00000000
   5.86898628  0.00000000  0.00000000
   1.46724657  2.54134561  0.00000000
   4.40173971  2.54134561  0.00000000
   7.33623285  2.54134561  0.00000000
   2.93449314  5.08269122  0.00000000
   5.86898628  5.08269122  0.00000000
   8.80347943  5.08269122  0.00000000
   1.46724657  0.84711520  2.39600362
   4.40173971  0.84711520  2.39600362
   7.33623285  0.84711520  2.39600362
   2.93449314  3.38846081  2.39600362
   5.86898628  3.38846081  2.39600362
   8.80347943  3.38846081  2.39600362
   4.40173971  5.92980642  2.39600362
   7.33623285  5.92980642  2.39600362
  10.27072600  5.92980642  2.39600362
   8.81705955  1.70104113  4.80911004
   2.91740771  1.69615339  4.82872270
   5.85917851  1.68599670  4.76295449
  10.27268291  4.21752402  4.79193808
   4.38191909  4.24505180  4.76235854
   7.32919621  4.24023931  4.74653399
  11.75163254  6.79324073  4.76251864
   5.87370077  6.80054206  4.80849897
   8.77965303  6.80399846  4.79112824
   0.01328084  0.02195299  7.21220855
   7.50704829  7.54311748  7.27794307
   5.94470930  0.01974279  7.18556748
  10.26766387  2.75445819  7.28319002
   4.45494253  2.58816850  7.14602208
   7.32441785  2.56593529  7.15792765
  11.78104747  5.15961920  7.18644625
   5.87250935  5.08406682  7.15616314
   8.81206110  5.10433330  7.12522929
   1.96672644  1.15091336  8.50802563



--------------------------------------------------------------------------------------------------------


 k-point     1 :   0.2500 0.2500 0.0000  plane waves:   28271
 k-point     2 :   0.0000 0.2500 0.0000  plane waves:   28271
 k-point     3 :  -0.2500 0.0000 0.0000  plane waves:   28271
 k-point     4 :  -0.2500 0.2500 0.0000  plane waves:   28278
 k-point     5 :   0.5000-0.2500 0.0000  plane waves:   28278
 k-point     6 :  -0.2500 0.5000 0.0000  plane waves:   28278

 maximum and minimum number of plane-waves per node :      1212     1152

 maximum number of plane-waves:     28278
 maximum index in each direction: 
   IXMAX=   14   IYMAX=   14   IZMAX=   37
   IXMIN=  -14   IYMIN=  -14   IZMIN=  -37


 real space projection operators:
  total allocation   :      28791.47 KBytes
  max/ min on nodes  :       1456.75        935.84


 parallel 3D FFT for wavefunctions:
    minimum data exchange during FFTs selected (reduces bandwidth)
 parallel 3D FFT for charge:
    minimum data exchange during FFTs selected (reduces bandwidth)


 total amount of memory used by VASP MPI-rank0    61944. kBytes
=======================================================================

   base      :      30000. kBytes
   nonlr-proj:       5465. kBytes
   fftplans  :       4620. kBytes
   grid      :       7634. kBytes
   one-center:         31. kBytes
   wavefun   :      14194. kBytes

     INWAV:  cpu time      0.0000: real time      0.0000
 Broyden mixing: mesh for mixing (old mesh)
   NGX = 29   NGY = 29   NGZ = 75
  (NGX  =120   NGY  =120   NGZ  =320)
  gives a total of  63075 points

 initial charge density was supplied:
 charge density of overlapping atoms calculated
 number of electron     402.0000000 magnetization 
 keeping initial charge density in first step


--------------------------------------------------------------------------------------------------------


 Maximum index for non-local projection operator          531
 Maximum index for augmentation-charges         1038 (set IRDMAX)


--------------------------------------------------------------------------------------------------------


 First call to EWALD:  gamma=   0.153
 Maximum number of real-space cells 4x 4x 2
 Maximum number of reciprocal cells 2x 2x 5

    FEWALD:  cpu time      0.0016: real time      0.0017


--------------------------------------- Ionic step        1  -------------------------------------------




--------------------------------------- Iteration      1(   1)  ---------------------------------------


    POTLOK:  cpu time      0.0549: real time      0.0566
    SETDIJ:  cpu time      0.0113: real time      0.0114
     EDDAV:  cpu time      3.7307: real time      3.7806
       DOS:  cpu time      0.0017: real time      0.0017
    --------------------------------------------
      LOOP:  cpu time      3.7985: real time      3.8503

 eigenvalue-minimisations  :  2904
 total energy-change (2. order) : 0.2474459E+04  (-0.1592062E+05)
 number of electron     402.0000000 magnetization 
 augmentation part      402.0000000 magnetization 

 DIPCOR: dipole corrections for dipol
 direction  3 min pos   219,
 dipolmoment           0.000000      0.000000      0.000121 electrons x Angstroem
 Tr[quadrupol]     -4964.897791

 energy correction for charged system         0.000000 eV
 dipol+quadrupol energy correction           -0.000000 eV
 added-field ion interaction          0.003036 eV  (added to PSCEN)


 Free energy of the ion-electron system (eV)
  ---------------------------------------------------
  alpha Z        PSCENC =       990.63736409
  Ewald energy   TEWEN  =    113009.46071663
  -Hartree energ DENC   =   -148327.78562326
  -exchange      EXHF   =         0.00000000
  -V(xc)+E(xc)   XCENC  =       577.55688484
  PAW double counting   =     31814.05959759   -30984.71300122
  entropy T*S    EENTRO =         0.00612040
  eigenvalues    EBANDS =      1624.07483631
  atomic energy  EATOM  =     33771.16187166
  Solvation  Ediel_sol  =         0.00000000
  ---------------------------------------------------
  free energy    TOTEN  =      2474.45876704 eV

  energy without entropy =     2474.45264664  energy(sigma->0) =     2474.45672691


--------------------------------------------------------------------------------------------------------




--------------------------------------- Iteration      1(   2)  ---------------------------------------


     EDDAV:  cpu time      4.0955: real time      4.1190
       DOS:  cpu time      0.0011: real time      0.0011
    --------------------------------------------
      LOOP:  cpu time      4.0966: real time      4.1200

 eigenvalue-minimisations  :  3368
 total energy-change (2. order) :-0.2440727E+04  (-0.2256124E+04)
 number of electron     402.0000000 magnetization 
 augmentation part      402.0000000 magnetization 

 DIPCOR: dipole corrections for dipol
 direction  3 min pos   219,
 dipolmoment           0.000000      0.000000      0.000121 electrons x Angstroem
 Tr[quadrupol]     -4964.897791

 energy correction for charged system         0.000000 eV
 dipol+quadrupol energy correction           -0.000000 eV
 added-field ion interaction          0.003036 eV  (added to PSCEN)


 Free energy of the ion-electron system (eV)
  ---------------------------------------------------
  alpha Z        PSCENC =       990.63736409
  Ewald energy   TEWEN  =    113009.46071663
  -Hartree energ DENC   =   -148327.78562326
  -exchange      EXHF   =         0.00000000
  -V(xc)+E(xc)   XCENC  =       577.55688484
  PAW double counting   =     31814.05959759   -30984.71300122
  entropy T*S    EENTRO =         0.00328356
  eigenvalues    EBANDS =      -816.64938285
  atomic energy  EATOM  =     33771.16187166
  Solvation  Ediel_sol  =         0.00000000
  ---------------------------------------------------
  free energy    TOTEN  =        33.73171104 eV

  energy without entropy =       33.72842748  energy(sigma->0) =       33.73061652


--------------------------------------------------------------------------------------------------------




--------------------------------------- Iteration      1(   3)  ---------------------------------------


     EDDAV:  cpu time      4.0093: real time      4.0315
       DOS:  cpu time      0.0014: real time      0.0014
    --------------------------------------------
      LOOP:  cpu time      4.0107: real time      4.0329

 eigenvalue-minimisations  :  3296
 total energy-change (2. order) :-0.1565082E+03  (-0.1493678E+03)
 number of electron     402.0000000 magnetization 
 augmentation part      402.0000000 magnetization 

 DIPCOR: dipole corrections for dipol
 direction  3 min pos   219,
 dipolmoment           0.000000      0.000000      0.000121 electrons x Angstroem
 Tr[quadrupol]     -4964.897791

 energy correction for charged system         0.000000 eV
 dipol+quadrupol energy correction           -0.000000 eV
 added-field ion interaction          0.003036 eV  (added to PSCEN)


 Free energy of the ion-electron system (eV)
  ---------------------------------------------------
  alpha Z        PSCENC =       990.63736409
  Ewald energy   TEWEN  =    113009.46071663
  -Hartree energ DENC   =   -148327.78562326
  -exchange      EXHF   =         0.00000000
  -V(xc)+E(xc)   XCENC  =       577.55688484
  PAW double counting   =     31814.05959759   -30984.71300122
  entropy T*S    EENTRO =        -0.01246447
  eigenvalues    EBANDS =      -973.14183489
  atomic energy  EATOM  =     33771.16187166
  Solvation  Ediel_sol  =         0.00000000
  ---------------------------------------------------
  free energy    TOTEN  =      -122.77648903 eV

  energy without entropy =     -122.76402456  energy(sigma->0) =     -122.77233421


--------------------------------------------------------------------------------------------------------




--------------------------------------- Iteration      1(   4)  ---------------------------------------


     EDDAV:  cpu time      3.9551: real time      3.9776
       DOS:  cpu time      0.0010: real time      0.0010
    --------------------------------------------
      LOOP:  cpu time      3.9561: real time      3.9786

 eigenvalue-minimisations  :  3232
 total energy-change (2. order) :-0.4201803E+01  (-0.4168411E+01)
 number of electron     402.0000000 magnetization 
 augmentation part      402.0000000 magnetization 

 DIPCOR: dipole corrections for dipol
 direction  3 min pos   219,
 dipolmoment           0.000000      0.000000      0.000121 electrons x Angstroem
 Tr[quadrupol]     -4964.897791

 energy correction for charged system         0.000000 eV
 dipol+quadrupol energy correction           -0.000000 eV
 added-field ion interaction          0.003036 eV  (added to PSCEN)


 Free energy of the ion-electron system (eV)
  ---------------------------------------------------
  alpha Z        PSCENC =       990.63736409
  Ewald energy   TEWEN  =    113009.46071663
  -Hartree energ DENC   =   -148327.78562326
  -exchange      EXHF   =         0.00000000
  -V(xc)+E(xc)   XCENC  =       577.55688484
  PAW double counting   =     31814.05959759   -30984.71300122
  entropy T*S    EENTRO =        -0.01295367
  eigenvalues    EBANDS =      -977.34314897
  atomic energy  EATOM  =     33771.16187166
  Solvation  Ediel_sol  =         0.00000000
  ---------------------------------------------------
  free energy    TOTEN  =      -126.97829231 eV

  energy without entropy =     -126.96533864  energy(sigma->0) =     -126.97397442


--------------------------------------------------------------------------------------------------------




--------------------------------------- Iteration      1(   5)  ---------------------------------------


     EDDAV:  cpu time      4.1853: real time      4.2086
       DOS:  cpu time      0.0014: real time      0.0014
    CHARGE:  cpu time      0.1568: real time      0.1576
    MIXING:  cpu time      0.0013: real time      0.0013
    --------------------------------------------
      LOOP:  cpu time      4.3448: real time      4.3689

 eigenvalue-minimisations  :  3464
 total energy-change (2. order) :-0.1469690E+00  (-0.1466641E+00)
 number of electron     402.0000000 magnetization 
 augmentation part      139.9399803 magnetization 

 DIPCOR: dipole corrections for dipol
 direction  3 min pos   219,
 dipolmoment           0.000000      0.000000      0.000121 electrons x Angstroem
 Tr[quadrupol]     -4964.897791

 energy correction for charged system         0.000000 eV
 dipol+quadrupol energy correction           -0.000000 eV
 added-field ion interaction          0.003036 eV  (added to PSCEN)


 Broyden mixing:
  rms(total) = 0.44738E+01    rms(broyden)= 0.44736E+01
  rms(prec ) = 0.45685E+01
  weight for this iteration     100.00

 Free energy of the ion-electron system (eV)
  ---------------------------------------------------
  alpha Z        PSCENC =       990.63736409
  Ewald energy   TEWEN  =    113009.46071663
  -Hartree energ DENC   =   -148327.78562326
  -exchange      EXHF   =         0.00000000
  -V(xc)+E(xc)   XCENC  =       577.55688484
  PAW double counting   =     31814.05959759   -30984.71300122
  entropy T*S    EENTRO =        -0.01298661
  eigenvalues    EBANDS =      -977.49008506
  atomic energy  EATOM  =     33771.16187166
  Solvation  Ediel_sol  =         0.00000000
  ---------------------------------------------------
  free energy    TOTEN  =      -127.12526135 eV

  energy without entropy =     -127.11227473  energy(sigma->0) =     -127.12093248


--------------------------------------------------------------------------------------------------------




--------------------------------------- Iteration      1(   6)  ---------------------------------------


    POTLOK:  cpu time      0.0441: real time      0.0443
    SETDIJ:  cpu time      0.0092: real time      0.0093
    EDDIAG:  cpu time      0.5957: real time      0.5987
  RMM-DIIS:  cpu time      2.3653: real time      2.3775
    ORTHCH:  cpu time      0.0874: real time      0.0878
       DOS:  cpu time      0.0010: real time      0.0010
    CHARGE:  cpu time      0.1550: real time      0.1556
    MIXING:  cpu time      0.0011: real time      0.0011
    --------------------------------------------
      LOOP:  cpu time      3.2588: real time      3.2753

 eigenvalue-minimisations  :  3124
 total energy-change (2. order) : 0.5649036E+01  (-0.3032467E+01)
 number of electron     401.9999994 magnetization 
 augmentation part      144.0238117 magnetization 

 DIPCOR: dipole corrections for dipol
 direction  3 min pos   225,
 dipolmoment           0.000000      0.000000      0.611946 electrons x Angstroem
 Tr[quadrupol]     -4961.276875

 energy correction for charged system         0.000000 eV
 dipol+quadrupol energy correction           -0.021770 eV
 added-field ion interaction         27.771692 eV  (added to PSCEN)


 Broyden mixing:
  rms(total) = 0.37943E+01    rms(broyden)= 0.37934E+01
  rms(prec ) = 0.40910E+01
  weight for this iteration     100.00

 eigenvalues of (default mixing * dielectric matrix)
  average eigenvalue GAMMA=   0.7407
  0.7407

 Free energy of the ion-electron system (eV)
  ---------------------------------------------------
  alpha Z        PSCENC =      1018.38425018
  Ewald energy   TEWEN  =    113009.46071663
  -Hartree energ DENC   =   -147937.26148769
  -exchange      EXHF   =         0.00000000
  -V(xc)+E(xc)   XCENC  =       566.69144943
  PAW double counting   =     33630.49186444   -32841.05101511
  entropy T*S    EENTRO =         0.01607853
  eigenvalues    EBANDS =     -1339.36995346
  atomic energy  EATOM  =     33771.16187166
  Solvation  Ediel_sol  =         0.00000000
  ---------------------------------------------------
  free energy    TOTEN  =      -121.47622539 eV

  energy without entropy =     -121.49230393  energy(sigma->0) =     -121.48158490


--------------------------------------------------------------------------------------------------------




--------------------------------------- Iteration      1(   7)  ---------------------------------------


    POTLOK:  cpu time      0.0438: real time      0.0440
    SETDIJ:  cpu time      0.0098: real time      0.0098
    EDDIAG:  cpu time      0.5881: real time      0.5907
  RMM-DIIS:  cpu time      2.5495: real time      2.5628
    ORTHCH:  cpu time      0.0880: real time      0.0883
       DOS:  cpu time      0.0009: real time      0.0010
    CHARGE:  cpu time      0.1525: real time      0.1531
    MIXING:  cpu time      0.0012: real time      0.0012
    --------------------------------------------
      LOOP:  cpu time      3.4338: real time      3.4509

 eigenvalue-minimisations  :  3353
 total energy-change (2. order) :-0.1253039E+02  (-0.3827445E+01)
 number of electron     402.0000000 magnetization 
 augmentation part      143.9679811 magnetization 

 DIPCOR: dipole corrections for dipol
 direction  3 min pos   218,
 dipolmoment           0.000000      0.000000     -1.484339 electrons x Angstroem
 Tr[quadrupol]     -4962.130267

 energy correction for charged system         0.000000 eV
 dipol+quadrupol energy correction           -0.128085 eV
 added-field ion interaction        -32.171925 eV  (added to PSCEN)


 Broyden mixing:
  rms(total) = 0.32266E+01    rms(broyden)= 0.32256E+01
  rms(prec ) = 0.40134E+01
  weight for this iteration     100.00

 eigenvalues of (default mixing * dielectric matrix)
  average eigenvalue GAMMA=   1.1331
  1.9294  0.3369

 Free energy of the ion-electron system (eV)
  ---------------------------------------------------
  alpha Z        PSCENC =       958.33431777
  Ewald energy   TEWEN  =    113009.46071663
  -Hartree energ DENC   =   -147954.05170192
  -exchange      EXHF   =         0.00000000
  -V(xc)+E(xc)   XCENC  =       563.03918234
  PAW double counting   =     34456.96949022   -33679.77036660
  entropy T*S    EENTRO =         0.00903210
  eigenvalues    EBANDS =     -1259.15915936
  atomic energy  EATOM  =     33771.16187166
  Solvation  Ediel_sol  =         0.00000000
  ---------------------------------------------------
  free energy    TOTEN  =      -134.00661717 eV

  energy without entropy =     -134.01564927  energy(sigma->0) =     -134.00962787


--------------------------------------------------------------------------------------------------------




--------------------------------------- Iteration      1(   8)  ---------------------------------------


    POTLOK:  cpu time      0.0438: real time      0.0440
    SETDIJ:  cpu time      0.0099: real time      0.0099
    EDDIAG:  cpu time      0.5873: real time      0.5899
  RMM-DIIS:  cpu time      2.5851: real time      2.5983
    ORTHCH:  cpu time      0.0843: real time      0.0847
       DOS:  cpu time      0.0010: real time      0.0010
    CHARGE:  cpu time      0.1543: real time      0.1549
    MIXING:  cpu time      0.0011: real time      0.0011
    --------------------------------------------
      LOOP:  cpu time      3.4667: real time      3.4838

 eigenvalue-minimisations  :  3420
 total energy-change (2. order) :-0.3270460E+01  (-0.3397698E+01)
 number of electron     401.9999998 magnetization 
 augmentation part      144.2779270 magnetization 

 DIPCOR: dipole corrections for dipol
 direction  3 min pos   213,
 dipolmoment           0.000000      0.000000      1.751052 electrons x Angstroem
 Tr[quadrupol]     -4965.253691

 energy correction for charged system         0.000000 eV
 dipol+quadrupol energy correction           -0.178251 eV
 added-field ion interaction          8.299504 eV  (added to PSCEN)


 Broyden mixing:
  rms(total) = 0.26683E+01    rms(broyden)= 0.26682E+01
  rms(prec ) = 0.36138E+01
  weight for this iteration     100.00

 eigenvalues of (default mixing * dielectric matrix)
  average eigenvalue GAMMA=   1.0574
  2.5083  0.4045  0.2593

 Free energy of the ion-electron system (eV)
  ---------------------------------------------------
  alpha Z        PSCENC =       998.75558180
  Ewald energy   TEWEN  =    113009.46071663
  -Hartree energ DENC   =   -147913.89972460
  -exchange      EXHF   =         0.00000000
  -V(xc)+E(xc)   XCENC  =       559.60834207
  PAW double counting   =     35714.15533406   -34957.24822025
  entropy T*S    EENTRO =         0.01579195
  eigenvalues    EBANDS =     -1319.28677011
  atomic energy  EATOM  =     33771.16187166
  Solvation  Ediel_sol  =         0.00000000
  ---------------------------------------------------
  free energy    TOTEN  =      -137.27707679 eV

  energy without entropy =     -137.29286874  energy(sigma->0) =     -137.28234078


--------------------------------------------------------------------------------------------------------




--------------------------------------- Iteration      1(   9)  ---------------------------------------


    POTLOK:  cpu time      0.0438: real time      0.0440
    SETDIJ:  cpu time      0.0101: real time      0.0101
    EDDIAG:  cpu time      0.5877: real time      0.5903
  RMM-DIIS:  cpu time      2.4961: real time      2.5089
    ORTHCH:  cpu time      0.0879: real time      0.0882
       DOS:  cpu time      0.0009: real time      0.0009
    CHARGE:  cpu time      0.1533: real time      0.1539
    MIXING:  cpu time      0.0012: real time      0.0012
    --------------------------------------------
      LOOP:  cpu time      3.3808: real time      3.3974

 eigenvalue-minimisations  :  3280
 total energy-change (2. order) : 0.1870960E+02  (-0.1369868E+01)
 number of electron     401.9999999 magnetization 
 augmentation part      146.9211288 magnetization 

 DIPCOR: dipole corrections for dipol
 direction  3 min pos   214,
 dipolmoment           0.000000      0.000000     -0.160824 electrons x Angstroem
 Tr[quadrupol]     -4963.489069

 energy correction for charged system         0.000000 eV
 dipol+quadrupol energy correction           -0.001504 eV
 added-field ion interaction         -1.306956 eV  (added to PSCEN)


 Broyden mixing:
  rms(total) = 0.12419E+01    rms(broyden)= 0.12418E+01
  rms(prec ) = 0.14295E+01
  weight for this iteration     100.00

 eigenvalues of (default mixing * dielectric matrix)
  average eigenvalue GAMMA=   0.9741
  2.3410  0.8399  0.4801  0.2355

 Free energy of the ion-electron system (eV)
  ---------------------------------------------------
  alpha Z        PSCENC =       989.32586822
  Ewald energy   TEWEN  =    113009.46071663
  -Hartree energ DENC   =   -147819.93910635
  -exchange      EXHF   =         0.00000000
  -V(xc)+E(xc)   XCENC  =       557.50314672
  PAW double counting   =     36774.77041378   -36035.87368438
  entropy T*S    EENTRO =        -0.01953882
  eigenvalues    EBANDS =     -1364.95716303
  atomic energy  EATOM  =     33771.16187166
  Solvation  Ediel_sol  =         0.00000000
  ---------------------------------------------------
  free energy    TOTEN  =      -118.56747557 eV

  energy without entropy =     -118.54793675  energy(sigma->0) =     -118.56096263


--------------------------------------------------------------------------------------------------------




--------------------------------------- Iteration      1(  10)  ---------------------------------------


    POTLOK:  cpu time      0.0438: real time      0.0440
    SETDIJ:  cpu time      0.0102: real time      0.0102
    EDDIAG:  cpu time      0.5851: real time      0.5877
  RMM-DIIS:  cpu time      2.4970: real time      2.5097
    ORTHCH:  cpu time      0.0879: real time      0.0883
       DOS:  cpu time      0.0009: real time      0.0009
    CHARGE:  cpu time      0.1532: real time      0.1538
    MIXING:  cpu time      0.0013: real time      0.0013
    --------------------------------------------
      LOOP:  cpu time      3.3795: real time      3.3961

 eigenvalue-minimisations  :  3280
 total energy-change (2. order) : 0.3335443E+01  (-0.6102459E+00)
 number of electron     401.9999998 magnetization 
 augmentation part      146.1868499 magnetization 

 DIPCOR: dipole corrections for dipol
 direction  3 min pos   221,
 dipolmoment           0.000000      0.000000     -0.023743 electrons x Angstroem
 Tr[quadrupol]     -4960.199293

 energy correction for charged system         0.000000 eV
 dipol+quadrupol energy correction           -0.000033 eV
 added-field ion interaction         -0.755858 eV  (added to PSCEN)


 Broyden mixing:
  rms(total) = 0.42735E+00    rms(broyden)= 0.42691E+00
  rms(prec ) = 0.49676E+00
  weight for this iteration     100.00

 eigenvalues of (default mixing * dielectric matrix)
  average eigenvalue GAMMA=   0.9598
  2.3259  1.2281  0.5033  0.5033  0.2385

 Free energy of the ion-electron system (eV)
  ---------------------------------------------------
  alpha Z        PSCENC =       989.87843784
  Ewald energy   TEWEN  =    113009.46071663
  -Hartree energ DENC   =   -147796.03554628
  -exchange      EXHF   =         0.00000000
  -V(xc)+E(xc)   XCENC  =       560.07391270
  PAW double counting   =     36811.89791197   -36068.19472853
  entropy T*S    EENTRO =        -0.02156225
  eigenvalues    EBANDS =     -1393.45304601
  atomic energy  EATOM  =     33771.16187166
  Solvation  Ediel_sol  =         0.00000000
  ---------------------------------------------------
  free energy    TOTEN  =      -115.23203227 eV

  energy without entropy =     -115.21047002  energy(sigma->0) =     -115.22484485


--------------------------------------------------------------------------------------------------------




--------------------------------------- Iteration      1(  11)  ---------------------------------------


    POTLOK:  cpu time      0.0436: real time      0.0438
    SETDIJ:  cpu time      0.0101: real time      0.0101
    EDDIAG:  cpu time      0.5851: real time      0.5878
  RMM-DIIS:  cpu time      2.4893: real time      2.5021
    ORTHCH:  cpu time      0.0878: real time      0.0882
       DOS:  cpu time      0.0010: real time      0.0010
    CHARGE:  cpu time      0.1531: real time      0.1537
    MIXING:  cpu time      0.0012: real time      0.0012
    --------------------------------------------
      LOOP:  cpu time      3.3713: real time      3.3878

 eigenvalue-minimisations  :  3281
 total energy-change (2. order) :-0.3483017E-01  (-0.1742119E+00)
 number of electron     401.9999997 magnetization 
 augmentation part      145.5401232 magnetization 

 DIPCOR: dipole corrections for dipol
 direction  3 min pos   224,
 dipolmoment           0.000000      0.000000      0.115198 electrons x Angstroem
 Tr[quadrupol]     -4960.395099

 energy correction for charged system         0.000000 eV
 dipol+quadrupol energy correction           -0.000771 eV
 added-field ion interaction          4.837807 eV  (added to PSCEN)


 Broyden mixing:
  rms(total) = 0.65145E+00    rms(broyden)= 0.65076E+00
  rms(prec ) = 0.71260E+00
  weight for this iteration     100.00

 eigenvalues of (default mixing * dielectric matrix)
  average eigenvalue GAMMA=   0.9652
  2.4040  1.0416  0.8362  0.8362  0.4344  0.2391

 Free energy of the ion-electron system (eV)
  ---------------------------------------------------
  alpha Z        PSCENC =       995.47136373
  Ewald energy   TEWEN  =    113009.46071663
  -Hartree energ DENC   =   -147827.33089270
  -exchange      EXHF   =         0.00000000
  -V(xc)+E(xc)   XCENC  =       561.37156732
  PAW double counting   =     36843.38141994   -36097.07961279
  entropy T*S    EENTRO =        -0.00748367
  eigenvalues    EBANDS =     -1371.69581256
  atomic energy  EATOM  =     33771.16187166
  Solvation  Ediel_sol  =         0.00000000
  ---------------------------------------------------
  free energy    TOTEN  =      -115.26686244 eV

  energy without entropy =     -115.25937877  energy(sigma->0) =     -115.26436789


--------------------------------------------------------------------------------------------------------




--------------------------------------- Iteration      1(  12)  ---------------------------------------


    POTLOK:  cpu time      0.0440: real time      0.0442
    SETDIJ:  cpu time      0.0107: real time      0.0107
    EDDIAG:  cpu time      0.5866: real time      0.5892
  RMM-DIIS:  cpu time      2.4493: real time      2.4618
    ORTHCH:  cpu time      0.0859: real time      0.0863
       DOS:  cpu time      0.0009: real time      0.0009
    CHARGE:  cpu time      0.1530: real time      0.1536
    MIXING:  cpu time      0.0013: real time      0.0013
    --------------------------------------------
      LOOP:  cpu time      3.3317: real time      3.3481

 eigenvalue-minimisations  :  3245
 total energy-change (2. order) : 0.1659328E+00  (-0.9535557E-01)
 number of electron     401.9999998 magnetization 
 augmentation part      145.8438798 magnetization 

 DIPCOR: dipole corrections for dipol
 direction  3 min pos   224,
 dipolmoment           0.000000      0.000000      0.122677 electrons x Angstroem
 Tr[quadrupol]     -4961.545979

 energy correction for charged system         0.000000 eV
 dipol+quadrupol energy correction           -0.000875 eV
 added-field ion interaction          5.151913 eV  (added to PSCEN)


 Broyden mixing:
  rms(total) = 0.26595E+00    rms(broyden)= 0.26505E+00
  rms(prec ) = 0.31895E+00
  weight for this iteration     100.00

 eigenvalues of (default mixing * dielectric matrix)
  average eigenvalue GAMMA=   0.9147
  2.3351  1.0924  1.0924  0.6176  0.6176  0.2391  0.4083

 Free energy of the ion-electron system (eV)
  ---------------------------------------------------
  alpha Z        PSCENC =       995.78536646
  Ewald energy   TEWEN  =    113009.46071663
  -Hartree energ DENC   =   -147840.39479269
  -exchange      EXHF   =         0.00000000
  -V(xc)+E(xc)   XCENC  =       560.56824667
  PAW double counting   =     36818.77870773   -36073.44990721
  entropy T*S    EENTRO =        -0.00822164
  eigenvalues    EBANDS =     -1357.00291725
  atomic energy  EATOM  =     33771.16187166
  Solvation  Ediel_sol  =         0.00000000
  ---------------------------------------------------
  free energy    TOTEN  =      -115.10092965 eV

  energy without entropy =     -115.09270801  energy(sigma->0) =     -115.09818910


--------------------------------------------------------------------------------------------------------




--------------------------------------- Iteration      1(  13)  ---------------------------------------


    POTLOK:  cpu time      0.0443: real time      0.0445
    SETDIJ:  cpu time      0.0111: real time      0.0112
    EDDIAG:  cpu time      0.5851: real time      0.5877
  RMM-DIIS:  cpu time      2.4099: real time      2.4222
    ORTHCH:  cpu time      0.0869: real time      0.0873
       DOS:  cpu time      0.0010: real time      0.0010
    CHARGE:  cpu time      0.1526: real time      0.1532
    MIXING:  cpu time      0.0013: real time      0.0013
    --------------------------------------------
      LOOP:  cpu time      3.2923: real time      3.3084

 eigenvalue-minimisations  :  3168
 total energy-change (2. order) : 0.1112438E+00  (-0.6458713E-02)
 number of electron     401.9999998 magnetization 
 augmentation part      145.7830295 magnetization 

 DIPCOR: dipole corrections for dipol
 direction  3 min pos   224,
 dipolmoment           0.000000      0.000000      0.115402 electrons x Angstroem
 Tr[quadrupol]     -4961.211392

 energy correction for charged system         0.000000 eV
 dipol+quadrupol energy correction           -0.000774 eV
 added-field ion interaction          4.846365 eV  (added to PSCEN)


 Broyden mixing:
  rms(total) = 0.18972E+00    rms(broyden)= 0.18970E+00
  rms(prec ) = 0.22772E+00
  weight for this iteration     100.00

 eigenvalues of (default mixing * dielectric matrix)
  average eigenvalue GAMMA=   1.0220
  2.0960  1.9471  1.5117  0.2391  0.7114  0.4308  0.6201  0.6201

 Free energy of the ion-electron system (eV)
  ---------------------------------------------------
  alpha Z        PSCENC =       995.47991893
  Ewald energy   TEWEN  =    113009.46071663
  -Hartree energ DENC   =   -147836.47063813
  -exchange      EXHF   =         0.00000000
  -V(xc)+E(xc)   XCENC  =       560.76252058
  PAW double counting   =     36801.57270363   -36055.38736734
  entropy T*S    EENTRO =        -0.01846434
  eigenvalues    EBANDS =     -1361.55094753
  atomic energy  EATOM  =     33771.16187166
  Solvation  Ediel_sol  =         0.00000000
  ---------------------------------------------------
  free energy    TOTEN  =      -114.98968590 eV

  energy without entropy =     -114.97122156  energy(sigma->0) =     -114.98353112


--------------------------------------------------------------------------------------------------------




--------------------------------------- Iteration      1(  14)  ---------------------------------------


    POTLOK:  cpu time      0.0440: real time      0.0442
    SETDIJ:  cpu time      0.0111: real time      0.0112
    EDDIAG:  cpu time      0.5843: real time      0.5869
  RMM-DIIS:  cpu time      2.5152: real time      2.5279
    ORTHCH:  cpu time      0.0844: real time      0.0848
       DOS:  cpu time      0.0010: real time      0.0010
    CHARGE:  cpu time      0.1526: real time      0.1531
    MIXING:  cpu time      0.0013: real time      0.0013
    --------------------------------------------
      LOOP:  cpu time      3.3940: real time      3.4105

 eigenvalue-minimisations  :  3276
 total energy-change (2. order) : 0.7773214E-01  (-0.4546008E-02)
 number of electron     401.9999998 magnetization 
 augmentation part      145.6882911 magnetization 

 DIPCOR: dipole corrections for dipol
 direction  3 min pos   225,
 dipolmoment           0.000000      0.000000      0.126019 electrons x Angstroem
 Tr[quadrupol]     -4960.963645

 energy correction for charged system         0.000000 eV
 dipol+quadrupol energy correction           -0.000923 eV
 added-field ion interaction          5.719071 eV  (added to PSCEN)


 Broyden mixing:
  rms(total) = 0.54588E-01    rms(broyden)= 0.54320E-01
  rms(prec ) = 0.62886E-01
  weight for this iteration     100.00

 eigenvalues of (default mixing * dielectric matrix)
  average eigenvalue GAMMA=   1.0603
  2.3481  2.3481  1.3235  0.2391  0.6399  0.6399  0.4285  0.7878  0.7878

 Free energy of the ion-electron system (eV)
  ---------------------------------------------------
  alpha Z        PSCENC =       996.35247605
  Ewald energy   TEWEN  =    113009.46071663
  -Hartree energ DENC   =   -147835.06437206
  -exchange      EXHF   =         0.00000000
  -V(xc)+E(xc)   XCENC  =       561.00809508
  PAW double counting   =     36783.79022257   -36036.46736496
  entropy T*S    EENTRO =        -0.02821938
  eigenvalues    EBANDS =     -1365.12537936
  atomic energy  EATOM  =     33771.16187166
  Solvation  Ediel_sol  =         0.00000000
  ---------------------------------------------------
  free energy    TOTEN  =      -114.91195376 eV

  energy without entropy =     -114.88373438  energy(sigma->0) =     -114.90254730


--------------------------------------------------------------------------------------------------------




--------------------------------------- Iteration      1(  15)  ---------------------------------------


    POTLOK:  cpu time      0.0443: real time      0.0445
    SETDIJ:  cpu time      0.0113: real time      0.0114
    EDDIAG:  cpu time      0.5858: real time      0.5885
  RMM-DIIS:  cpu time      2.5279: real time      2.5406
    ORTHCH:  cpu time      0.0848: real time      0.0852
       DOS:  cpu time      0.0010: real time      0.0010
    CHARGE:  cpu time      0.1530: real time      0.1535
    MIXING:  cpu time      0.0014: real time      0.0014
    --------------------------------------------
      LOOP:  cpu time      3.4094: real time      3.4260

 eigenvalue-minimisations  :  3322
 total energy-change (2. order) : 0.2112536E-02  (-0.1488085E-02)
 number of electron     401.9999998 magnetization 
 augmentation part      145.6431643 magnetization 

 DIPCOR: dipole corrections for dipol
 direction  3 min pos   226,
 dipolmoment           0.000000      0.000000      0.133192 electrons x Angstroem
 Tr[quadrupol]     -4960.955309

 energy correction for charged system         0.000000 eV
 dipol+quadrupol energy correction           -0.001031 eV
 added-field ion interaction          6.495708 eV  (added to PSCEN)


 Broyden mixing:
  rms(total) = 0.21327E-01    rms(broyden)= 0.21106E-01
  rms(prec ) = 0.23438E-01
  weight for this iteration     100.00

 eigenvalues of (default mixing * dielectric matrix)
  average eigenvalue GAMMA=   1.1261
  2.5213  1.9745  1.9745  1.0334  1.0334  0.2391  0.6442  0.6442  0.4289  0.7674

 Free energy of the ion-electron system (eV)
  ---------------------------------------------------
  alpha Z        PSCENC =       997.12900537
  Ewald energy   TEWEN  =    113009.46071663
  -Hartree energ DENC   =   -147836.27637044
  -exchange      EXHF   =         0.00000000
  -V(xc)+E(xc)   XCENC  =       561.09991172
  PAW double counting   =     36787.57588054   -36039.92020811
  entropy T*S    EENTRO =        -0.02892448
  eigenvalues    EBANDS =     -1365.11172411
  atomic energy  EATOM  =     33771.16187166
  Solvation  Ediel_sol  =         0.00000000
  ---------------------------------------------------
  free energy    TOTEN  =      -114.90984122 eV

  energy without entropy =     -114.88091674  energy(sigma->0) =     -114.90019973


--------------------------------------------------------------------------------------------------------




--------------------------------------- Iteration      1(  16)  ---------------------------------------


    POTLOK:  cpu time      0.0442: real time      0.0444
    SETDIJ:  cpu time      0.0112: real time      0.0113
    EDDIAG:  cpu time      0.5839: real time      0.5865
  RMM-DIIS:  cpu time      2.4781: real time      2.4908
    ORTHCH:  cpu time      0.0883: real time      0.0890
       DOS:  cpu time      0.0009: real time      0.0009
    CHARGE:  cpu time      0.1529: real time      0.1534
    MIXING:  cpu time      0.0015: real time      0.0015
    --------------------------------------------
      LOOP:  cpu time      3.3610: real time      3.3778

 eigenvalue-minimisations  :  3258
 total energy-change (2. order) :-0.2649868E-02  (-0.2395515E-03)
 number of electron     401.9999998 magnetization 
 augmentation part      145.6527061 magnetization 

 DIPCOR: dipole corrections for dipol
 direction  3 min pos   228,
 dipolmoment           0.000000      0.000000      0.126766 electrons x Angstroem
 Tr[quadrupol]     -4961.033302

 energy correction for charged system         0.000000 eV
 dipol+quadrupol energy correction           -0.000934 eV
 added-field ion interaction          7.040995 eV  (added to PSCEN)


 Broyden mixing:
  rms(total) = 0.27161E-01    rms(broyden)= 0.27155E-01
  rms(prec ) = 0.32045E-01
  weight for this iteration     100.00

 eigenvalues of (default mixing * dielectric matrix)
  average eigenvalue GAMMA=   1.1657
  2.6380  2.2534  2.2534  1.2188  0.8931  0.8931  0.2391  0.6448  0.6448  0.4287
  0.7157

 Free energy of the ion-electron system (eV)
  ---------------------------------------------------
  alpha Z        PSCENC =       997.67438957
  Ewald energy   TEWEN  =    113009.46071663
  -Hartree energ DENC   =   -147837.04814509
  -exchange      EXHF   =         0.00000000
  -V(xc)+E(xc)   XCENC  =       561.07700913
  PAW double counting   =     36796.84279299   -36049.20908252
  entropy T*S    EENTRO =        -0.02848572
  eigenvalues    EBANDS =     -1364.84355774
  atomic energy  EATOM  =     33771.16187166
  Solvation  Ediel_sol  =         0.00000000
  ---------------------------------------------------
  free energy    TOTEN  =      -114.91249109 eV

  energy without entropy =     -114.88400537  energy(sigma->0) =     -114.90299585


--------------------------------------------------------------------------------------------------------




--------------------------------------- Iteration      1(  17)  ---------------------------------------


    POTLOK:  cpu time      0.0439: real time      0.0456
    SETDIJ:  cpu time      0.0112: real time      0.0112
    EDDIAG:  cpu time      0.5857: real time      0.5883
  RMM-DIIS:  cpu time      2.4598: real time      2.4721
    ORTHCH:  cpu time      0.0867: real time      0.0871
       DOS:  cpu time      0.0009: real time      0.0009
    CHARGE:  cpu time      0.1534: real time      0.1539
    MIXING:  cpu time      0.0014: real time      0.0014
    --------------------------------------------
      LOOP:  cpu time      3.3430: real time      3.3606

 eigenvalue-minimisations  :  3225
 total energy-change (2. order) : 0.5679421E-04  (-0.1762588E-03)
 number of electron     401.9999998 magnetization 
 augmentation part      145.6420711 magnetization 

 DIPCOR: dipole corrections for dipol
 direction  3 min pos   228,
 dipolmoment           0.000000      0.000000      0.130537 electrons x Angstroem
 Tr[quadrupol]     -4961.024232

 energy correction for charged system         0.000000 eV
 dipol+quadrupol energy correction           -0.000991 eV
 added-field ion interaction          7.250449 eV  (added to PSCEN)


 Broyden mixing:
  rms(total) = 0.52462E-02    rms(broyden)= 0.51519E-02
  rms(prec ) = 0.56535E-02
  weight for this iteration     100.00

 eigenvalues of (default mixing * dielectric matrix)
  average eigenvalue GAMMA=   1.1099
  2.6345  2.1651  2.1651  1.0912  1.0912  0.2391  0.6452  0.6452  0.8219  0.8219
  0.4287  0.5699

 Free energy of the ion-electron system (eV)
  ---------------------------------------------------
  alpha Z        PSCENC =       997.88378644
  Ewald energy   TEWEN  =    113009.46071663
  -Hartree energ DENC   =   -147836.85429793
  -exchange      EXHF   =         0.00000000
  -V(xc)+E(xc)   XCENC  =       561.10009866
  PAW double counting   =     36799.71466143   -36052.00755074
  entropy T*S    EENTRO =        -0.02889255
  eigenvalues    EBANDS =     -1365.34282790
  atomic energy  EATOM  =     33771.16187166
  Solvation  Ediel_sol  =         0.00000000
  ---------------------------------------------------
  free energy    TOTEN  =      -114.91243430 eV

  energy without entropy =     -114.88354175  energy(sigma->0) =     -114.90280345


--------------------------------------------------------------------------------------------------------




--------------------------------------- Iteration      1(  18)  ---------------------------------------


    POTLOK:  cpu time      0.0441: real time      0.0443
    SETDIJ:  cpu time      0.0115: real time      0.0117
    EDDIAG:  cpu time      0.5855: real time      0.6154
  RMM-DIIS:  cpu time      1.7297: real time      1.7385
    ORTHCH:  cpu time      0.0878: real time      0.0882
       DOS:  cpu time      0.0009: real time      0.0009
    CHARGE:  cpu time      0.1529: real time      0.1535
    MIXING:  cpu time      0.0015: real time      0.0015
    --------------------------------------------
      LOOP:  cpu time      2.6139: real time      2.6540

 eigenvalue-minimisations  :  2133
 total energy-change (2. order) :-0.2137105E-03  (-0.2394505E-04)
 number of electron     401.9999998 magnetization 
 augmentation part      145.6415744 magnetization 

 DIPCOR: dipole corrections for dipol
 direction  3 min pos   228,
 dipolmoment           0.000000      0.000000      0.132551 electrons x Angstroem
 Tr[quadrupol]     -4961.022948

 energy correction for charged system         0.000000 eV
 dipol+quadrupol energy correction           -0.001021 eV
 added-field ion interaction          7.362301 eV  (added to PSCEN)


 Broyden mixing:
  rms(total) = 0.31063E-02    rms(broyden)= 0.30982E-02
  rms(prec ) = 0.38124E-02
  weight for this iteration     100.00

 eigenvalues of (default mixing * dielectric matrix)
  average eigenvalue GAMMA=   1.1784
  3.0991  2.1104  2.1104  1.6011  1.1173  1.1173  0.2391  0.6454  0.6454  0.4287
  0.7661  0.7661  0.6724

 Free energy of the ion-electron system (eV)
  ---------------------------------------------------
  alpha Z        PSCENC =       997.99560752
  Ewald energy   TEWEN  =    113009.46071663
  -Hartree energ DENC   =   -147836.62950929
  -exchange      EXHF   =         0.00000000
  -V(xc)+E(xc)   XCENC  =       561.10039459
  PAW double counting   =     36798.99908810   -36051.27707046
  entropy T*S    EENTRO =        -0.02890343
  eigenvalues    EBANDS =     -1365.69484332
  atomic energy  EATOM  =     33771.16187166
  Solvation  Ediel_sol  =         0.00000000
  ---------------------------------------------------
  free energy    TOTEN  =      -114.91264801 eV

  energy without entropy =     -114.88374458  energy(sigma->0) =     -114.90301353
[...]
    151      -2.1305      2.00000
    152      -2.0929      2.00000
    153      -2.0701      2.00000
    154      -2.0530      2.00000
    155      -2.0278      2.00000
    156      -1.9585      2.00000
    157      -1.9369      2.00000
    158      -1.9130      2.00000
    159      -1.8713      2.00000
    160      -1.8505      2.00000
    161      -1.8367      2.00000
    162      -1.7733      2.00000
    163      -1.7447      2.00000
    164      -1.7039      2.00000
    165      -1.6920      2.00000
    166      -1.6779      2.00000
    167      -1.6420      2.00000
    168      -1.6354      2.00000
    169      -1.6017      2.00000
    170      -1.5832      2.00000
    171      -1.5619      2.00000
    172      -1.5563      2.00000
    173      -1.5512      2.00000
    174      -1.5379      2.00000
    175      -1.5291      2.00000
    176      -1.5206      2.00000
    177      -1.4977      2.00000
    178      -1.4897      2.00000
    179      -1.4401      2.00000
    180      -1.4153      2.00000
    181      -1.3939      2.00000
    182      -1.3840      2.00000
    183      -1.3629      2.00000
    184      -1.3504      2.00000
    185      -1.3358      2.00000
    186      -1.2745      2.00000
    187      -1.2484      2.00000
    188      -1.2115      2.00000
    189      -1.0521      2.00000
    190      -0.9872      2.00000
    191      -0.8936      2.00000
    192      -0.8293      2.00000
    193      -0.7107      2.00000
    194      -0.5795      2.00000
    195      -0.3792      2.00000
    196      -0.2616      2.00000
    197       0.0611      2.00000
    198       0.3215      2.07034
    199       0.3632      1.96162
    200       0.4661      0.57209
    201       0.4821      0.35026
    202       0.7270     -0.00038
    203       0.8042     -0.00000
    204       0.9421     -0.00000
    205       0.9870     -0.00000
    206       1.1428     -0.00000
    207       1.2114     -0.00000
    208       1.4561     -0.00000
    209       1.9196     -0.00000
    210       2.1249     -0.00000
    211       2.1444     -0.00000
    212       2.1962     -0.00000
    213       2.3719     -0.00000
    214       2.4334     -0.00000
    215       2.6782      0.00000
    216       2.7582      0.00000
    217       2.8466      0.00000
    218       2.9156      0.00000
    219       3.0981      0.00000
    220       3.1675      0.00000
    221       3.4513      0.00000
    222       3.6108      0.00000
    223       3.9607      0.00000
    224       4.0001      0.00000
    225       4.1423      0.00000
    226       4.3218      0.00000
    227       4.4552      0.00000
    228       4.7182      0.00000
    229       4.8655      0.00000
    230       5.3040      0.00000
    231       5.4197      0.00000
    232       5.4719      0.00000
    233       5.7113      0.00000
    234       5.7433      0.00000
    235       5.8629      0.00000
    236       5.8930      0.00000
    237       5.9338      0.00000
    238       6.0031      0.00000
    239       6.0740      0.00000
    240       6.1547      0.00000
    241       6.6186      0.00000
    242       6.6978      0.00000


--------------------------------------------------------------------------------------------------------


 soft charge-density along one line, spin component           1
         0         1         2         3         4         5         6         7         8         9
 total charge-density along one line

 pseudopotential strength for first ion, spin component:           1
 -7.447   0.000  -0.002  -0.004   0.000  -7.607   0.000  -0.001
  0.000  -7.417   0.000   0.001  -0.004   0.000  -7.578   0.000
 -0.002   0.000  -7.415   0.000  -0.001  -0.001   0.000  -7.576
 -0.004   0.001   0.000  -7.416   0.000  -0.004   0.001   0.000
  0.000  -0.004  -0.001   0.000  -7.447   0.000  -0.004  -0.001
 -7.607   0.000  -0.001  -0.004   0.000  -7.751   0.000  -0.001
  0.000  -7.578   0.000   0.001  -0.004   0.000  -7.722   0.000
 -0.001   0.000  -7.576   0.000  -0.001  -0.001   0.000  -7.721
 -0.004   0.001   0.000  -7.577   0.000  -0.004   0.001   0.000
  0.000  -0.004  -0.001   0.000  -7.607   0.000  -0.004  -0.001
 -0.000  -0.000  -0.013  -0.000  -0.000  -0.000  -0.000  -0.013
 -0.001  -0.000  -0.019  -0.000  -0.000  -0.001  -0.000  -0.018
 -0.000  -0.004   0.000   0.000   0.000  -0.000  -0.004   0.000
  0.000  -0.000  -0.006  -0.000   0.000   0.000  -0.000  -0.006
 -0.000   0.000   0.000  -0.004  -0.000  -0.000   0.000   0.000
 -0.000  -0.004   0.000  -0.000   0.001  -0.000  -0.004   0.000
 -0.000  -0.000  -0.007  -0.000  -0.000  -0.000  -0.000  -0.006
 -0.000  -0.000   0.000  -0.004  -0.000   0.000  -0.000   0.000
 total augmentation occupancy for first ion, spin component:           1
  4.087  -0.002  -0.021   0.019   0.003  -2.063   0.002   0.015  -0.075  -0.002   0.005  -0.003  -0.000   0.005  -0.031  -0.000
 -0.002   3.659   0.009   0.003   0.021   0.002  -1.464  -0.006  -0.002  -0.075   0.003   0.001  -0.144  -0.002  -0.001   0.003
 -0.021   0.009   4.152   0.015  -0.012   0.015  -0.006  -1.999  -0.010   0.009   0.562  -0.058   0.000  -0.233   0.000   0.000
  0.019   0.003   0.015   3.663  -0.002  -0.074  -0.002  -0.010  -1.467   0.001   0.005   0.002  -0.001  -0.003  -0.145   0.000
  0.003   0.021  -0.012  -0.002   4.085  -0.002  -0.076   0.009   0.001  -2.061   0.003  -0.001  -0.030   0.003  -0.000   0.001
 -2.063   0.002   0.015  -0.074  -0.002   1.953  -0.001  -0.011   0.114   0.002  -0.003   0.000   0.000  -0.004   0.030   0.000
  0.002  -1.464  -0.006  -0.002  -0.076  -0.001   1.230   0.005   0.001   0.116  -0.002  -0.001   0.139   0.001   0.001  -0.006
  0.015  -0.006  -1.999  -0.010   0.009  -0.011   0.005   1.791   0.007  -0.006  -0.515   0.078  -0.000   0.243  -0.000  -0.000
 -0.075  -0.002  -0.010  -1.467   0.001   0.114   0.001   0.007   1.231  -0.001  -0.003  -0.002   0.001   0.002   0.140  -0.000
 -0.002  -0.075   0.009   0.001  -2.061   0.002   0.116  -0.006  -0.001   1.952  -0.002   0.000   0.030  -0.002   0.000  -0.001
  0.005   0.003   0.562   0.005   0.003  -0.003  -0.002  -0.515  -0.003  -0.002   2.203  -0.483   0.000   0.135   0.000  -0.000
 -0.003   0.001  -0.058   0.002  -0.001   0.000  -0.001   0.078  -0.002   0.000  -0.483   0.154   0.000  -0.058   0.001   0.000
 -0.000  -0.144   0.000  -0.001  -0.030   0.000   0.139  -0.000   0.001   0.030   0.000   0.000   0.150  -0.000   0.001  -0.005
  0.005  -0.002  -0.233  -0.003   0.003  -0.004   0.001   0.243   0.002  -0.002   0.135  -0.058  -0.000   0.087  -0.001   0.000
 -0.031  -0.001   0.000  -0.145  -0.000   0.030   0.001  -0.000   0.140   0.000   0.000   0.001   0.001  -0.001   0.151  -0.000
 -0.000   0.003   0.000   0.000   0.001   0.000  -0.006  -0.000  -0.000  -0.001  -0.000   0.000  -0.005   0.000  -0.000   0.000
 -0.000  -0.000   0.000  -0.000  -0.000   0.000   0.000  -0.007   0.000   0.000  -0.008   0.003   0.000  -0.003   0.000  -0.000
  0.001   0.000   0.000   0.003  -0.000  -0.001  -0.000   0.000  -0.006   0.000  -0.000   0.000  -0.000   0.000  -0.005  -0.000


------------------------ aborting loop because EDIFF is reached ----------------------------------------


    CHARGE:  cpu time      0.1532: real time      0.1537
    FORLOC:  cpu time      0.0063: real time      0.0063
    FORNL :  cpu time      0.6941: real time      0.6970
    STRESS:  cpu time      2.1095: real time      2.1184
    FORCOR:  cpu time      0.0495: real time      0.0497
    FORHAR:  cpu time      0.0143: real time      0.0144
    MIXING:  cpu time      0.0017: real time      0.0017
    OFIELD:  cpu time      0.0000: real time      0.0000

  FORCE on cell =-STRESS in cart. coord.  units (eV):
  Direction    XX          YY          ZZ          XY          YZ          ZX
  --------------------------------------------------------------------------------------
  Alpha Z   990.63433   990.63433   990.63433
  Ewald  136070.79539136193.94434************   -98.65581   -21.06621   -27.66764
  Hartree144729.83746144784.84298************   -44.30688    -8.11536   -10.89092
  E(xc)   -1807.67732 -1807.36593 -1814.61877    -0.24975    -0.04383    -0.05521
  Local  ************************293676.32105   136.35451    27.60957    36.54714
  n-local   -74.55384   -73.92967   -55.31701    -0.64926    -0.25712    -0.41126
  augment  2441.37452  2439.72332  2456.15435     1.32879     0.39721     0.50666
  Kinetic  5632.81052  5626.71174  5681.37579     4.99682     0.84111     1.09884
  Fock        0.00000     0.00000     0.00000     0.00000     0.00000     0.00000
  -------------------------------------------------------------------------------------
  Total     -16.37118   -14.94751    -0.46030    -1.18158    -0.63462    -0.87238
  in kB     -16.85341   -15.38780    -0.47386    -1.21638    -0.65331    -0.89808
  external pressure =      -10.91 kB  Pullay stress =        0.00 kB


 VOLUME and BASIS-vectors are now :
 -----------------------------------------------------------------------------
  energy-cutoff  :      400.00
  volume of cell :     1556.33
      direct lattice vectors                 reciprocal lattice vectors
     8.803479426  0.000000000  0.000000000     0.113591451 -0.065582055  0.000000000
     4.401739713  7.624036824  0.000000000     0.000000000  0.131164109  0.000000000
     0.000000000  0.000000000 23.188010851     0.000000000  0.000000000  0.043125735

  length of vectors
     8.803479426  8.803479426 23.188010851     0.131164109  0.131164109  0.043125735


 FORCES acting on ions
    electron-ion (+dipol)            ewald-force                    non-local-force                 convergence-correction
 -----------------------------------------------------------------------------------------------
   -.384E+00 -.237E+00 0.260E+04   0.412E+00 0.250E+00 -.260E+04   -.160E-01 -.703E-02 -.473E+00   -.125E-03 -.341E-04 0.173E-01
   0.114E+00 -.266E+00 0.260E+04   -.197E+00 0.296E+00 -.260E+04   0.646E-01 -.142E-01 -.383E+00   0.124E-02 -.615E-03 0.178E-01
   0.275E+00 0.732E-01 0.260E+04   -.214E+00 -.182E+00 -.260E+04   -.501E-01 0.942E-01 -.358E+00   -.108E-02 -.747E-03 0.180E-01
   -.162E+00 0.225E+00 0.260E+04   0.148E+00 -.314E+00 -.260E+04   0.197E-01 0.637E-01 -.382E+00   0.439E-04 0.139E-02 0.179E-01
   0.513E+00 0.298E+00 0.260E+04   -.562E+00 -.327E+00 -.260E+04   0.492E-01 0.287E-01 -.265E+00   -.267E-03 -.192E-03 0.177E-01
   -.400E+00 0.197E+00 0.260E+04   0.414E+00 -.224E+00 -.260E+04   -.513E-02 0.175E-01 -.287E+00   0.303E-03 0.577E-03 0.184E-01
   0.217E+00 0.207E+00 0.260E+04   -.277E+00 -.980E-01 -.260E+04   0.539E-01 -.922E-01 -.358E+00   -.124E-02 -.602E-03 0.179E-01
   -.312E-01 -.435E+00 0.260E+04   0.156E-01 0.461E+00 -.260E+04   0.117E-01 -.132E-01 -.286E+00   0.687E-03 -.578E-04 0.184E-01
   -.180E+00 -.931E-01 0.260E+04   0.258E+00 0.140E+00 -.260E+04   -.636E-01 -.386E-01 -.316E+00   0.595E-03 0.295E-03 0.190E-01
   -.137E+01 -.103E+01 0.900E+03   0.134E+01 0.100E+01 -.900E+03   0.592E-01 0.488E-01 -.304E+00   0.441E-03 0.299E-03 0.704E-01
   0.515E+01 -.529E+00 0.904E+03   -.510E+01 0.511E+00 -.903E+03   -.546E-01 0.306E-01 -.179E+00   -.748E-03 -.123E-03 0.702E-01
   -.365E+01 -.153E+01 0.905E+03   0.352E+01 0.162E+01 -.904E+03   0.108E+00 -.369E-01 -.347E+00   0.363E-03 0.340E-03 0.699E-01
   0.238E+01 0.451E+01 0.904E+03   -.236E+01 -.447E+01 -.903E+03   -.132E-01 -.488E-01 -.174E+00   -.531E-03 -.590E-03 0.703E-01
   0.156E+01 0.830E+00 0.908E+03   -.154E+01 -.826E+00 -.907E+03   -.346E-01 -.113E-01 -.390E+00   0.163E-03 0.642E-04 0.694E-01
   -.338E+01 0.249E+01 0.905E+03   0.338E+01 -.243E+01 -.904E+03   -.842E-02 -.694E-01 -.363E+00   0.257E-03 0.260E-03 0.698E-01
   -.301E+01 -.266E+01 0.905E+03   0.303E+01 0.250E+01 -.905E+03   0.175E-01 0.127E+00 -.356E+00   0.450E-03 0.158E-03 0.700E-01
   0.532E+00 -.428E+01 0.905E+03   -.475E+00 0.424E+01 -.904E+03   -.702E-01 0.460E-01 -.372E+00   0.373E-03 0.652E-04 0.698E-01
   0.233E+01 0.120E+01 0.900E+03   -.240E+01 -.124E+01 -.899E+03   0.297E-01 0.234E-01 -.599E+00   -.827E-03 -.478E-03 0.695E-01
   0.167E+01 0.482E+00 -.822E+03   -.148E+01 -.630E+00 0.822E+03   -.187E+00 0.143E+00 0.177E+00   0.661E-03 0.529E-03 0.873E-01
   0.253E+01 0.131E+01 -.834E+03   -.255E+01 -.131E+01 0.833E+03   0.277E-01 0.250E-02 0.386E+00   -.821E-03 -.460E-03 0.873E-01
   -.336E+01 -.211E+01 -.793E+03   0.323E+01 0.193E+01 0.792E+03   0.149E+00 0.167E+00 0.508E+00   -.476E-05 0.144E-03 0.876E-01
   -.158E+01 -.121E+02 -.799E+03   0.172E+01 0.114E+02 0.799E+03   -.138E+00 0.641E+00 -.286E+00   -.757E-03 0.655E-03 0.875E-01
   -.355E+01 -.179E+01 -.793E+03   0.332E+01 0.176E+01 0.792E+03   0.228E+00 0.441E-01 0.508E+00   0.113E-03 -.199E-04 0.876E-01
   0.267E+01 0.150E+01 -.784E+03   -.266E+01 -.150E+01 0.783E+03   0.124E-01 0.686E-02 0.622E+00   0.632E-03 0.383E-03 0.880E-01
   0.557E+01 0.308E+01 -.793E+03   -.541E+01 -.298E+01 0.792E+03   -.134E+00 -.785E-01 0.632E+00   -.100E-02 -.612E-03 0.877E-01
   0.137E+01 0.142E+01 -.821E+03   -.140E+01 -.117E+01 0.821E+03   0.356E-01 -.245E+00 0.173E+00   0.751E-03 0.269E-03 0.873E-01
   -.116E+02 0.511E+01 -.798E+03   0.111E+02 -.466E+01 0.798E+03   0.490E+00 -.455E+00 -.286E+00   0.155E-03 -.100E-02 0.875E-01
   0.382E+02 0.220E+02 -.250E+04   -.404E+02 -.233E+02 0.250E+04   0.226E+01 0.130E+01 0.141E+01   0.754E-02 0.438E-02 0.425E-01
   -.522E+02 0.647E+02 -.247E+04   0.531E+02 -.653E+02 0.247E+04   -.802E+00 0.594E+00 -.548E+00   -.985E-02 0.101E-01 0.456E-01
   -.856E+01 -.254E+01 -.253E+04   0.886E+01 0.259E+01 0.253E+04   -.256E+00 -.396E-01 0.257E+00   -.196E-04 -.150E-02 0.383E-01
   0.298E+02 -.777E+02 -.247E+04   -.298E+02 0.787E+02 0.247E+04   0.136E+00 -.994E+00 -.562E+00   0.390E-02 -.136E-01 0.454E-01
   -.224E+02 -.128E+02 -.250E+04   0.238E+02 0.136E+02 0.250E+04   -.137E+01 -.801E+00 0.123E+01   -.272E-02 -.152E-02 0.420E-01
   0.104E+02 -.645E+01 -.252E+04   -.109E+02 0.639E+01 0.252E+04   0.474E+00 0.728E-01 0.531E+00   0.364E-03 0.105E-02 0.395E-01
   -.630E+01 -.606E+01 -.253E+04   0.649E+01 0.629E+01 0.253E+04   -.165E+00 -.204E+00 0.257E+00   -.132E-02 0.672E-03 0.382E-01
   -.635E+00 0.123E+02 -.252E+04   0.357E+00 -.126E+02 0.252E+04   0.301E+00 0.362E+00 0.533E+00   0.102E-02 -.251E-03 0.395E-01
   0.393E+01 0.221E+01 -.250E+04   -.393E+01 -.222E+01 0.250E+04   0.476E-01 0.331E-01 0.339E+00   0.291E-03 0.102E-03 0.394E-01
   0.105E+02 0.654E+01 -.170E+04   -.128E+02 -.799E+01 0.173E+04   0.191E+01 0.117E+01 -.231E+02   -.311E-03 -.145E-03 -.165E-01
 -----------------------------------------------------------------------------------------------
   -.312E+01 -.187E+01 0.214E+02   0.115E-12 -.129E-12 -.341E-11   0.312E+01 0.187E+01 -.234E+02   -.128E-02 -.764E-03 0.193E+01


 POSITION                                       TOTAL-FORCE (eV/Angst)
 -----------------------------------------------------------------------------------
      0.00000      0.00000      0.00000         0.011106      0.005477     -0.049207
      2.93449      0.00000      0.00000        -0.016972      0.015540     -0.058511
      5.86899      0.00000      0.00000         0.009895     -0.015409     -0.075661
      1.46725      2.54135      0.00000         0.005548     -0.023745     -0.058162
      4.40174      2.54135      0.00000         0.000361     -0.000373     -0.059880
      7.33623      2.54135      0.00000         0.009728     -0.009489     -0.051373
      2.93449      5.08269      0.00000        -0.007493      0.015838     -0.074619
      5.86899      5.08269      0.00000        -0.003156      0.012798     -0.051497
      8.80348      5.08269      0.00000         0.015582      0.008916     -0.054409
      1.46725      0.84712      2.39600         0.023855      0.019029      0.114695
      4.40174      0.84712      2.39600        -0.005535      0.012208      0.064752
      7.33623      0.84712      2.39600        -0.013917      0.054476      0.041297
      2.93449      3.38846      2.39600         0.003033     -0.005834      0.067035
      5.86899      3.38846      2.39600        -0.020275     -0.007564     -0.008600
      8.80348      3.38846      2.39600        -0.002965     -0.009682      0.027526
      4.40174      5.92981      2.39600         0.037416     -0.031577      0.039657
      7.33623      5.92981      2.39600        -0.012756      0.009729      0.024732
     10.27073      5.92981      2.39600        -0.040819     -0.018645      0.195880
      8.81706      1.70104      4.80911         0.008013     -0.004220      0.009723
      2.91741      1.69615      4.82872         0.004669      0.000178      0.014243
      5.85918      1.68600      4.76295         0.015431     -0.005034     -0.021398
     10.27268      4.21752      4.79194         0.001789      0.011449      0.005825
      4.38192      4.24505      4.76236         0.002423      0.014672     -0.020008
      7.32920      4.24024      4.74653         0.020868      0.011985      0.017240
     11.75163      6.79324      4.76252         0.028363      0.016949      0.035095
      5.87370      6.80054      4.80850         0.001030      0.005928      0.008759
      8.77965      6.80400      4.79113         0.012261     -0.008687      0.005065
      0.01328      0.02195      7.21221         0.045779      0.026470      0.111294
      7.50705      7.54312      7.27794         0.085152      0.020468     -0.033003
      5.94471      0.01974      7.18557         0.042438      0.007786      0.001248
     10.26766      2.75446      7.28319         0.067154      0.061367     -0.039671
      4.45494      2.58817      7.14602         0.028791      0.012341     -0.047702
      7.32442      2.56594      7.15793         0.029396      0.013716     -0.010717
     11.78105      5.15962      7.18645         0.026757      0.030478      0.000143
      5.87251      5.08407      7.15616         0.024934      0.012527     -0.009081
      8.81206      5.10433      7.12523         0.044540      0.020459      0.019154
      1.96673      1.15091      8.50803        -0.482426     -0.280524     -0.079866
 -----------------------------------------------------------------------------------
    total drift:                               -0.002636     -0.003206     -0.029602


--------------------------------------------------------------------------------------------------------



  FREE ENERGIE OF THE ION-ELECTRON SYSTEM (eV)
  ---------------------------------------------------
  free  energy   TOTEN  =      -114.91372356 eV

  energy  without entropy=     -114.88482437  energy(sigma->0) =     -114.90409050



--------------------------------------------------------------------------------------------------------


    POTLOK:  cpu time      0.0537: real time      0.0540


--------------------------------------------------------------------------------------------------------


     LOOP+:  cpu time     75.6054: real time     76.0518
 vacuum level on the upper side and lower side of the slab         6.006         5.483
    4ORBIT:  cpu time      0.0000: real time      0.0000

 total amount of memory used by VASP MPI-rank0    61944. kBytes
=======================================================================

   base      :      30000. kBytes
   nonlr-proj:       5465. kBytes
   fftplans  :       4620. kBytes
   grid      :       7634. kBytes
   one-center:         31. kBytes
   wavefun   :      14194. kBytes

  
  
 General timing and accounting informations for this job:
 ========================================================
  
                  Total CPU time used (sec):       78.470
                            User time (sec):       76.267
                          System time (sec):        2.203
                         Elapsed time (sec):       79.762
  
                   Maximum memory used (kb):      338152.
                   Average memory used (kb):          N/A
  
                          Minor page faults:        93821
                          Major page faults:          101
                 Voluntary context switches:         2030
