unknown system                          
           1
     8.803479    0.000000    0.000000
     4.401740    7.624037    0.000000
     0.000000    0.000000   23.188011
   Au   O 
    36     1
Direct configuration=     1
   0.00000000  0.00000000  0.00000000
   0.33333333  0.00000000  0.00000000
   0.66666667  0.00000000  0.00000000
   0.00000000  0.33333333  0.00000000
   0.33333333  0.33333333  0.00000000
   0.66666667  0.33333333  0.00000000
   0.00000000  0.66666667  0.00000000
   0.33333333  0.66666667  0.00000000
   0.66666667  0.66666667  0.00000000
   0.11111111  0.11111111  0.10332942
   0.44444444  0.11111111  0.10332942
   0.77777778  0.11111111  0.10332942
   0.11111111  0.44444444  0.10332942
   0.44444444  0.44444444  0.10332942
   0.77777778  0.44444444  0.10332942
   0.11111111  0.77777778  0.10332942
   0.44444444  0.77777778  0.10332942
   0.77777778  0.77777778  0.10332942
   0.88998481  0.22311554  0.20739640
   0.22015535  0.22247445  0.20824221
   0.55498146  0.22114226  0.20540591
   0.89029507  0.55318778  0.20665585
   0.21934933  0.55679844  0.20538021
   0.55445042  0.55616721  0.20469776
   0.88937030  0.89102937  0.20538711
   0.22120867  0.89198704  0.20737005
   0.55107333  0.89244040  0.20662092
   0.00006887  0.00287944  0.31103179
   0.35804336  0.98938629  0.31386664
   0.67397338  0.00258955  0.30988288
   0.98567581  0.36128606  0.31409292
   0.33630598  0.33947482  0.30817745
   0.66371194  0.33655862  0.30869089
   0.99984785  0.67675686  0.30992077
   0.33364331  0.66684710  0.30861479
   0.66622214  0.66950533  0.30728075
   0.14792405  0.15095853  0.36691485
