  39  39   0   0
  0.3566249E+02  0.8358002E-09  0.8358002E-09  0.1991000E-08  0.5000000E-15
   1.0000000000000000E-004
  CAR 
 unknown system                          
      7.27605478    -15.32898936  301      0.94630933      1.00000000
    -15.329  0.0000E+00  0.0000E+00
    -15.254  0.0000E+00  0.0000E+00
    -15.178  0.0000E+00  0.0000E+00
    -15.103 -0.7619E-26 -0.5741E-27
    -15.028 -0.6885E-21 -0.5188E-22
    -14.952 -0.1977E-16 -0.1490E-17
    -14.877 -0.1740E-12 -0.1311E-13
    -14.802 -0.4965E-09 -0.3743E-10
    -14.726 -0.4407E-06 -0.3325E-07
    -14.651 -0.1201E-03 -0.9086E-05
    -14.575 -0.9721E-02 -0.7416E-03
    -14.500 -0.2117E+00 -0.1669E-01
    -14.425 -0.7193E+00 -0.7089E-01
    -14.349  0.4692E+01  0.2827E+00
    -14.274  0.1542E+02  0.1445E+01
    -14.199  0.8103E+01  0.2055E+01
    -14.123 -0.3336E+00  0.2030E+01
    -14.048 -0.3765E+00  0.2002E+01
    -13.973 -0.2586E-01  0.2000E+01
    -13.897 -0.4506E-03  0.2000E+01
    -13.822 -0.2292E-05  0.2000E+01
    -13.747 -0.3556E-08  0.2000E+01
    -13.671 -0.1715E-11  0.2000E+01
    -13.596  0.0000E+00  0.2000E+01
    -13.521  0.0000E+00  0.2000E+01
    -13.445  0.0000E+00  0.2000E+01
    -13.370  0.0000E+00  0.2000E+01
    -13.295  0.0000E+00  0.2000E+01
    -13.219  0.0000E+00  0.2000E+01
    -13.144  0.0000E+00  0.2000E+01
    -13.068  0.0000E+00  0.2000E+01
    -12.993  0.0000E+00  0.2000E+01
    -12.918  0.0000E+00  0.2000E+01
    -12.842  0.0000E+00  0.2000E+01
    -12.767  0.0000E+00  0.2000E+01
    -12.692  0.0000E+00  0.2000E+01
    -12.616  0.0000E+00  0.2000E+01
    -12.541  0.0000E+00  0.2000E+01
    -12.466  0.0000E+00  0.2000E+01
    -12.390  0.0000E+00  0.2000E+01
    -12.315  0.0000E+00  0.2000E+01
    -12.240  0.0000E+00  0.2000E+01
    -12.164  0.0000E+00  0.2000E+01
    -12.089  0.0000E+00  0.2000E+01
    -12.014  0.0000E+00  0.2000E+01
    -11.938  0.0000E+00  0.2000E+01
    -11.863  0.0000E+00  0.2000E+01
    -11.788  0.0000E+00  0.2000E+01
    -11.712  0.0000E+00  0.2000E+01
    -11.637  0.0000E+00  0.2000E+01
    -11.561  0.0000E+00  0.2000E+01
    -11.486  0.0000E+00  0.2000E+01
    -11.411  0.0000E+00  0.2000E+01
    -11.335  0.0000E+00  0.2000E+01
    -11.260  0.0000E+00  0.2000E+01
    -11.185  0.0000E+00  0.2000E+01
    -11.109  0.0000E+00  0.2000E+01
    -11.034  0.0000E+00  0.2000E+01
    -10.959  0.0000E+00  0.2000E+01
    -10.883  0.0000E+00  0.2000E+01
    -10.808  0.0000E+00  0.2000E+01
    -10.733  0.0000E+00  0.2000E+01
    -10.657  0.0000E+00  0.2000E+01
    -10.582  0.0000E+00  0.2000E+01
    -10.507  0.0000E+00  0.2000E+01
    -10.431  0.0000E+00  0.2000E+01
    -10.356  0.0000E+00  0.2000E+01
    -10.281  0.0000E+00  0.2000E+01
    -10.205  0.0000E+00  0.2000E+01
    -10.130  0.0000E+00  0.2000E+01
    -10.054  0.0000E+00  0.2000E+01
     -9.979  0.0000E+00  0.2000E+01
     -9.904  0.0000E+00  0.2000E+01
     -9.828  0.0000E+00  0.2000E+01
     -9.753  0.0000E+00  0.2000E+01
     -9.678  0.0000E+00  0.2000E+01
     -9.602  0.0000E+00  0.2000E+01
     -9.527  0.0000E+00  0.2000E+01
     -9.452  0.0000E+00  0.2000E+01
     -9.376  0.0000E+00  0.2000E+01
     -9.301  0.0000E+00  0.2000E+01
     -9.226  0.0000E+00  0.2000E+01
     -9.150  0.0000E+00  0.2000E+01
     -9.075  0.0000E+00  0.2000E+01
     -9.000  0.0000E+00  0.2000E+01
     -8.924  0.0000E+00  0.2000E+01
     -8.849  0.0000E+00  0.2000E+01
     -8.774  0.0000E+00  0.2000E+01
     -8.698  0.0000E+00  0.2000E+01
     -8.623  0.0000E+00  0.2000E+01
     -8.547  0.0000E+00  0.2000E+01
     -8.472  0.0000E+00  0.2000E+01
     -8.397  0.0000E+00  0.2000E+01
     -8.321  0.0000E+00  0.2000E+01
     -8.246  0.0000E+00  0.2000E+01
     -8.171  0.0000E+00  0.2000E+01
     -8.095  0.0000E+00  0.2000E+01
     -8.020  0.0000E+00  0.2000E+01
     -7.945  0.0000E+00  0.2000E+01
     -7.869  0.0000E+00  0.2000E+01
     -7.794  0.0000E+00  0.2000E+01
     -7.719  0.0000E+00  0.2000E+01
     -7.643  0.0000E+00  0.2000E+01
     -7.568  0.0000E+00  0.2000E+01
     -7.493  0.0000E+00  0.2000E+01
     -7.417  0.0000E+00  0.2000E+01
     -7.342  0.0000E+00  0.2000E+01
     -7.267 -0.3483E-28  0.2000E+01
     -7.191 -0.5210E-23  0.2000E+01
     -7.116 -0.2479E-18  0.2000E+01
     -7.040 -0.3743E-14  0.2000E+01
     -6.965 -0.1726E-10  0.2000E+01
     -6.890 -0.2562E-07  0.2000E+01
     -6.814 -0.1178E-04  0.2000E+01
     -6.739 -0.1637E-02  0.2000E+01
     -6.664 -0.6491E-01  0.1995E+01
     -6.588 -0.5888E+00  0.1951E+01
     -6.513  0.8439E+00  0.2014E+01
     -6.438  0.1179E+02  0.2902E+01
     -6.362  0.1346E+02  0.3917E+01
     -6.287  0.1898E+01  0.4060E+01
     -6.212 -0.6877E+00  0.4008E+01
     -6.136 -0.1013E+00  0.4000E+01
     -6.061 -0.3134E-02  0.4000E+01
     -5.986 -0.2719E-04  0.4000E+01
     -5.910 -0.7093E-07  0.4000E+01
     -5.835 -0.7877E-10  0.4000E+01
     -5.760 -0.3103E-07  0.4000E+01
     -5.684 -0.1379E-04  0.4000E+01
     -5.609 -0.1851E-02  0.4000E+01
     -5.533 -0.7068E-01  0.3995E+01
     -5.458 -0.6091E+00  0.3949E+01
     -5.383  0.1016E+01  0.4025E+01
     -5.307  0.1212E+02  0.4938E+01
     -5.232  0.1312E+02  0.5927E+01
     -5.157  0.1105E+01  0.6010E+01
     -5.081  0.5635E-01  0.6014E+01
     -5.006  0.1145E+02  0.6877E+01
     -4.931  0.1365E+02  0.7906E+01
     -4.855  0.2061E+01  0.8061E+01
     -4.780 -0.6981E+00  0.8008E+01
     -4.705 -0.1072E+00  0.8000E+01
     -4.629 -0.3408E-02  0.8000E+01
     -4.554 -0.3032E-04  0.8000E+01
     -4.479 -0.8965E-06  0.8000E+01
     -4.403 -0.2247E-03  0.8000E+01
     -4.328 -0.1842E-01  0.7999E+01
     -4.253 -0.4082E+00  0.7968E+01
     -4.177 -0.1446E+01  0.7859E+01
     -4.102  0.9015E+01  0.8538E+01
     -4.026  0.3059E+02  0.1084E+02
     -3.951  0.1596E+02  0.1205E+02
     -3.876  0.1234E+01  0.1214E+02
     -3.800  0.1142E+02  0.1300E+02
     -3.725  0.1010E+02  0.1376E+02
     -3.650  0.2483E+02  0.1563E+02
     -3.574  0.7800E+02  0.2151E+02
     -3.499  0.8060E+02  0.2758E+02
     -3.424  0.7384E+02  0.3314E+02
     -3.348  0.6877E+02  0.3833E+02
     -3.273  0.3462E+02  0.4094E+02
     -3.198  0.4447E+02  0.4429E+02
     -3.122  0.5871E+02  0.4871E+02
     -3.047  0.5301E+02  0.5270E+02
     -2.972  0.8783E+02  0.5932E+02
     -2.896  0.7129E+02  0.6469E+02
     -2.821  0.5249E+02  0.6865E+02
     -2.746  0.5383E+02  0.7271E+02
     -2.670  0.1095E+03  0.8095E+02
     -2.595  0.1050E+03  0.8886E+02
     -2.519  0.2602E+02  0.9082E+02
     -2.444  0.2871E+02  0.9299E+02
     -2.369  0.6394E+02  0.9780E+02
     -2.293  0.6723E+02  0.1029E+03
     -2.218  0.8653E+02  0.1094E+03
     -2.143  0.7615E+02  0.1151E+03
     -2.067  0.4588E+02  0.1186E+03
     -1.992  0.4666E+02  0.1221E+03
     -1.917  0.4409E+02  0.1254E+03
     -1.841  0.7907E+02  0.1314E+03
     -1.766  0.8347E+02  0.1377E+03
     -1.691  0.6637E+02  0.1427E+03
     -1.615  0.6110E+02  0.1473E+03
     -1.540  0.5256E+02  0.1512E+03
     -1.465  0.8602E+02  0.1577E+03
     -1.389  0.1367E+03  0.1680E+03
     -1.314  0.1121E+03  0.1765E+03
     -1.239  0.5968E+02  0.1810E+03
     -1.163  0.8977E+02  0.1877E+03
     -1.088  0.1057E+03  0.1957E+03
     -1.012  0.7937E+02  0.2017E+03
     -0.937  0.6721E+02  0.2067E+03
     -0.862  0.5851E+02  0.2111E+03
     -0.786  0.6318E+02  0.2159E+03
     -0.711  0.4559E+02  0.2193E+03
     -0.636  0.5356E+02  0.2234E+03
     -0.560  0.1181E+03  0.2323E+03
     -0.485  0.1474E+03  0.2434E+03
     -0.410  0.1065E+03  0.2514E+03
     -0.334  0.7523E+02  0.2571E+03
     -0.259  0.5464E+02  0.2612E+03
     -0.184  0.8691E+02  0.2677E+03
     -0.108  0.1035E+03  0.2755E+03
     -0.033  0.6023E+02  0.2801E+03
      0.042  0.6773E+02  0.2852E+03
      0.118  0.1101E+03  0.2935E+03
      0.193  0.8447E+02  0.2998E+03
      0.268  0.3918E+02  0.3028E+03
      0.344  0.5323E+02  0.3068E+03
      0.419  0.9290E+02  0.3138E+03
      0.495  0.1217E+03  0.3230E+03
      0.570  0.9212E+02  0.3299E+03
      0.645  0.8003E+02  0.3359E+03
      0.721  0.1298E+03  0.3457E+03
      0.796  0.1130E+03  0.3542E+03
      0.871  0.7885E+02  0.3602E+03
      0.947  0.1044E+03  0.3680E+03
      1.022  0.9682E+02  0.3753E+03
      1.097  0.4131E+02  0.3784E+03
      1.173  0.2081E+02  0.3800E+03
      1.248  0.3033E+02  0.3823E+03
      1.323  0.2247E+02  0.3840E+03
      1.399  0.1400E+01  0.3841E+03
      1.474 -0.1203E+01  0.3840E+03
      1.549 -0.4852E+00  0.3840E+03
      1.625 -0.1192E+01  0.3839E+03
      1.700  0.5952E+01  0.3843E+03
      1.775  0.2976E+02  0.3866E+03
      1.851  0.3543E+02  0.3892E+03
      1.926  0.1683E+02  0.3905E+03
      2.002  0.2841E+02  0.3927E+03
      2.077  0.2984E+02  0.3949E+03
      2.152  0.1324E+02  0.3959E+03
      2.228  0.5683E+01  0.3963E+03
      2.303  0.1367E+02  0.3974E+03
      2.378  0.2125E+02  0.3990E+03
      2.454  0.3076E+02  0.4013E+03
      2.529  0.1145E+02  0.4021E+03
      2.604 -0.1304E+01  0.4020E+03
      2.680 -0.9625E+00  0.4020E+03
      2.755 -0.1597E+00  0.4020E+03
      2.830  0.9030E+01  0.4026E+03
      2.906  0.1512E+02  0.4038E+03
      2.981  0.3915E+01  0.4041E+03
      3.056 -0.7408E+00  0.4040E+03
      3.132 -0.1925E+00  0.4040E+03
      3.207 -0.2694E+00  0.4040E+03
      3.282 -0.7986E+00  0.4039E+03
      3.358  0.4869E+01  0.4043E+03
      3.433  0.1858E+02  0.4057E+03
      3.509  0.2129E+02  0.4073E+03
      3.584  0.1652E+02  0.4085E+03
      3.659  0.2139E+02  0.4101E+03
      3.735  0.2719E+02  0.4122E+03
      3.810  0.2400E+02  0.4140E+03
      3.885  0.1774E+02  0.4153E+03
      3.961  0.8374E+01  0.4160E+03
      4.036  0.7073E+01  0.4165E+03
      4.111  0.1561E+02  0.4177E+03
      4.187  0.1631E+02  0.4189E+03
      4.262  0.1255E+02  0.4199E+03
      4.337  0.2160E+01  0.4200E+03
      4.413  0.1203E+02  0.4209E+03
      4.488  0.2627E+02  0.4229E+03
      4.563  0.1465E+02  0.4240E+03
      4.639  0.7059E+00  0.4241E+03
      4.714 -0.7305E+00  0.4240E+03
      4.789 -0.1587E+00  0.4240E+03
      4.865 -0.8624E+00  0.4239E+03
      4.940 -0.1554E+00  0.4239E+03
      5.016  0.1809E+02  0.4253E+03
      5.091  0.3000E+02  0.4275E+03
      5.166  0.7871E+01  0.4281E+03
      5.242 -0.1960E+01  0.4280E+03
      5.317 -0.1919E+01  0.4278E+03
      5.392  0.1035E+02  0.4286E+03
      5.468  0.3792E+02  0.4315E+03
      5.543  0.2991E+02  0.4337E+03
      5.618  0.4194E+01  0.4341E+03
      5.694  0.1222E+01  0.4341E+03
      5.769  0.1453E+02  0.4352E+03
      5.844  0.2015E+02  0.4368E+03
      5.920  0.1300E+02  0.4377E+03
      5.995  0.3953E+01  0.4380E+03
      6.070 -0.8394E+00  0.4380E+03
      6.146  0.2218E+01  0.4381E+03
      6.221  0.1182E+02  0.4390E+03
      6.297  0.1145E+02  0.4399E+03
      6.372  0.2124E+01  0.4400E+03
      6.447 -0.5314E+00  0.4400E+03
      6.523 -0.1168E+00  0.4400E+03
      6.598 -0.5042E-02  0.4400E+03
      6.673 -0.6096E-04  0.4400E+03
      6.749 -0.2218E-06  0.4400E+03
      6.824 -0.2490E-09  0.4400E+03
      6.899 -0.8841E-13  0.4400E+03
      6.975  0.0000E+00  0.4400E+03
      7.050  0.0000E+00  0.4400E+03
      7.125  0.0000E+00  0.4400E+03
      7.201  0.0000E+00  0.4400E+03
      7.276  0.0000E+00  0.4400E+03
