   39   39    1    1
  0.3566249E+02  0.8358002E-09  0.8358002E-09  0.1991000E-08  0.5000000E-15
   1.0000000000000000E-004
  CAR 
 unknown system                          
    368      2    220

  0.2500000E+00  0.2500000E+00  0.1262379E-14  0.5000000E+00
      1        -14.301473   1.000000
      2         -6.431860   1.000000
      3         -5.304222   1.000000
      4         -4.998263   1.000000
      5         -4.054927   1.000000
      6         -4.050560   1.000000
      7         -3.806557   1.000000
      8         -3.655718   1.000000
      9         -3.600642   1.000000
     10         -3.588953   1.000000
     11         -3.586286   1.000000
     12         -3.570826   1.000000
     13         -3.567090   1.000000
     14         -3.501572   1.000000
     15         -3.470859   1.000000
     16         -3.440369   1.000000
     17         -3.414836   1.000000
     18         -3.403540   1.000000
     19         -3.390008   1.000000
     20         -3.343271   1.000000
     21         -3.271013   1.000000
     22         -3.181954   1.000000
     23         -3.177153   1.000000
     24         -3.174710   1.000000
     25         -3.152790   1.000000
     26         -3.036564   1.000000
     27         -3.031432   1.000000
     28         -3.026439   1.000000
     29         -2.988550   1.000000
     30         -2.986610   1.000000
     31         -2.959318   1.000000
     32         -2.952122   1.000000
     33         -2.852954   1.000000
     34         -2.849981   1.000000
     35         -2.847425   1.000000
     36         -2.784919   1.000000
     37         -2.708794   1.000000
     38         -2.699136   1.000000
     39         -2.687607   1.000000
     40         -2.683540   1.000000
     41         -2.664157   1.000000
     42         -2.663492   1.000000
     43         -2.648533   1.000000
     44         -2.640649   1.000000
     45         -2.625821   1.000000
     46         -2.496716   1.000000
     47         -2.420501   1.000000
     48         -2.408022   1.000000
     49         -2.387902   1.000000
     50         -2.360755   1.000000
     51         -2.336642   1.000000
     52         -2.269290   1.000000
     53         -2.259384   1.000000
     54         -2.239283   1.000000
     55         -2.218918   1.000000
     56         -2.201841   1.000000
     57         -2.198188   1.000000
     58         -2.160073   1.000000
     59         -2.082735   1.000000
     60         -2.058346   1.000000
     61         -2.008334   1.000000
     62         -2.002446   1.000000
     63         -1.902758   1.000000
     64         -1.868216   1.000000
     65         -1.867869   1.000000
     66         -1.851093   1.000000
     67         -1.839820   1.000000
     68         -1.799359   1.000000
     69         -1.792604   1.000000
     70         -1.731430   1.000000
     71         -1.712706   1.000000
     72         -1.697720   1.000000
     73         -1.638087   1.000000
     74         -1.631103   1.000000
     75         -1.598941   1.000000
     76         -1.528774   1.000000
     77         -1.510593   1.000000
     78         -1.498830   1.000000
     79         -1.451003   1.000000
     80         -1.441451   1.000000
     81         -1.437508   1.000000
     82         -1.415940   1.000000
     83         -1.412888   1.000000
     84         -1.403972   1.000000
     85         -1.391853   1.000000
     86         -1.376869   1.000000
     87         -1.339857   1.000000
     88         -1.326813   1.000000
     89         -1.319830   1.000000
     90         -1.305424   1.000000
     91         -1.197619   1.000000
     92         -1.193324   1.000000
     93         -1.182357   1.000000
     94         -1.167712   1.000000
     95         -1.164536   1.000000
     96         -1.140207   1.000000
     97         -1.129196   1.000000
     98         -1.116532   1.000000
     99         -1.047216   1.000000
    100         -1.037741   1.000000
    101         -1.030553   1.000000
    102         -0.990804   1.000000
    103         -0.978405   1.000000
    104         -0.935764   1.000000
    105         -0.903867   1.000000
    106         -0.853759   1.000000
    107         -0.837649   1.000000
    108         -0.791316   1.000000
    109         -0.790071   1.000000
    110         -0.729867   1.000000
    111         -0.656993   1.000000
    112         -0.625011   1.000000
    113         -0.620405   1.000000
    114         -0.592357   1.000000
    115         -0.586980   1.000000
    116         -0.571974   1.000000
    117         -0.544308   1.000000
    118         -0.531208   1.000000
    119         -0.521901   1.000000
    120         -0.515315   1.000000
    121         -0.512400   1.000000
    122         -0.503798   1.000000
    123         -0.481664   1.000000
    124         -0.474358   1.000000
    125         -0.426266   1.000000
    126         -0.407895   1.000000
    127         -0.379054   1.000000
    128         -0.366267   1.000000
    129         -0.338132   1.000000
    130         -0.327781   1.000000
    131         -0.236439   1.000000
    132         -0.229245   1.000000
    133         -0.198582   1.000000
    134         -0.185251   1.000000
    135         -0.165253   1.000000
    136         -0.158594   1.000000
    137         -0.156081   1.000000
    138         -0.115441   1.000000
    139         -0.094913   1.000000
    140         -0.070595   1.000000
    141          0.000079   1.000000
    142          0.028514   1.000000
    143          0.042929   1.000000
    144          0.067659   1.000000
    145          0.072298   1.000000
    146          0.111961   1.000000
    147          0.123836   1.000000
    148          0.124693   1.000000
    149          0.141022   1.000000
    150          0.145474   1.000000
    151          0.223197   1.000000
    152          0.283109   1.000000
    153          0.314503   1.000000
    154          0.346511   1.000000
    155          0.372675   1.000000
    156          0.403636   1.000000
    157          0.419571   1.000000
    158          0.425357   1.000000
    159          0.452295   1.000000
    160          0.461231   1.000000
    161          0.476808   1.000000
    162          0.499280   1.000000
    163          0.507022   1.000000
    164          0.524129   1.000000
    165          0.531060   1.000000
    166          0.586923   1.000002
    167          0.635361   1.000050
    168          0.638437   1.000060
    169          0.665922   1.000268
    170          0.674335   1.000410
    171          0.695365   1.001110
    172          0.706017   1.001767
    173          0.716596   1.002731
    174          0.718198   1.002910
    175          0.737488   1.005950
    176          0.745597   1.007812
    177          0.767177   1.014767
    178          0.809850   1.032984
    179          0.843608   1.027708
    180          0.849288   1.021753
    181          0.887409   0.915021
    182          0.916558   0.739847
    183          0.930791   0.629593
    184          0.939554   0.557025
    185          0.950043   0.468425
    186          0.974956   0.268249
    187          0.983342   0.209156
    188          0.994378   0.140693
    189          1.053814  -0.031265
    190          1.127251  -0.014072
    191          1.241752  -0.000120
    192          1.242562  -0.000115
    193          1.736297  -0.000000
    194          1.803355  -0.000000
    195          1.813543  -0.000000
    196          1.972500  -0.000000
    197          1.997193  -0.000000
    198          2.080522  -0.000000
    199          2.276569  -0.000000
    200          2.403920  -0.000000
    201          2.417354  -0.000000
    202          2.852198  -0.000000
    203          3.392942   0.000000
    204          3.495006   0.000000
    205          3.610825   0.000000
    206          3.685010   0.000000
    207          3.765219   0.000000
    208          3.881241   0.000000
    209          4.062071   0.000000
    210          4.198408   0.000000
    211          4.438089   0.000000
    212          4.469618   0.000000
    213          5.033105   0.000000
    214          5.046115   0.000000
    215          5.425736   0.000000
    216          5.448143   0.000000
    217          5.470695   0.000000
    218          5.780274   0.000000
    219          5.899605   0.000000
    220          6.190136   0.000000

 -0.2500000E+00  0.2500000E+00  0.1262379E-14  0.5000000E+00
      1        -14.301487   1.000000
      2         -6.431911   1.000000
      3         -5.303334   1.000000
      4         -4.999142   1.000000
      5         -4.055827   1.000000
      6         -4.049070   1.000000
      7         -3.806312   1.000000
      8         -3.655110   1.000000
      9         -3.598939   1.000000
     10         -3.596633   1.000000
     11         -3.579954   1.000000
     12         -3.570864   1.000000
     13         -3.568133   1.000000
     14         -3.501369   1.000000
     15         -3.470789   1.000000
     16         -3.442602   1.000000
     17         -3.414753   1.000000
     18         -3.401306   1.000000
     19         -3.390879   1.000000
     20         -3.344951   1.000000
     21         -3.266781   1.000000
     22         -3.182248   1.000000
     23         -3.179770   1.000000
     24         -3.177102   1.000000
     25         -3.155806   1.000000
     26         -3.037311   1.000000
     27         -3.030684   1.000000
     28         -3.024388   1.000000
     29         -2.989831   1.000000
     30         -2.982544   1.000000
     31         -2.959947   1.000000
     32         -2.952978   1.000000
     33         -2.853804   1.000000
     34         -2.850552   1.000000
     35         -2.845329   1.000000
     36         -2.785999   1.000000
     37         -2.708423   1.000000
     38         -2.699106   1.000000
     39         -2.686586   1.000000
     40         -2.683950   1.000000
     41         -2.664531   1.000000
     42         -2.657193   1.000000
     43         -2.653467   1.000000
     44         -2.640346   1.000000
     45         -2.624276   1.000000
     46         -2.496772   1.000000
     47         -2.424007   1.000000
     48         -2.405773   1.000000
     49         -2.386981   1.000000
     50         -2.372032   1.000000
     51         -2.326328   1.000000
     52         -2.268235   1.000000
     53         -2.256935   1.000000
     54         -2.237458   1.000000
     55         -2.218762   1.000000
     56         -2.206130   1.000000
     57         -2.197142   1.000000
     58         -2.160169   1.000000
     59         -2.081628   1.000000
     60         -2.059070   1.000000
     61         -2.009493   1.000000
     62         -1.998839   1.000000
     63         -1.901580   1.000000
     64         -1.870981   1.000000
     65         -1.866850   1.000000
     66         -1.852129   1.000000
     67         -1.840803   1.000000
     68         -1.798639   1.000000
     69         -1.792031   1.000000
     70         -1.731051   1.000000
     71         -1.712259   1.000000
     72         -1.696310   1.000000
     73         -1.636938   1.000000
     74         -1.635964   1.000000
     75         -1.599417   1.000000
     76         -1.528079   1.000000
     77         -1.511635   1.000000
     78         -1.496304   1.000000
     79         -1.451096   1.000000
     80         -1.441693   1.000000
     81         -1.431140   1.000000
     82         -1.423710   1.000000
     83         -1.413253   1.000000
     84         -1.402011   1.000000
     85         -1.399547   1.000000
     86         -1.384596   1.000000
     87         -1.339142   1.000000
     88         -1.327794   1.000000
     89         -1.318133   1.000000
     90         -1.306581   1.000000
     91         -1.194139   1.000000
     92         -1.192788   1.000000
     93         -1.178571   1.000000
     94         -1.174499   1.000000
     95         -1.162986   1.000000
     96         -1.140936   1.000000
     97         -1.132309   1.000000
     98         -1.104005   1.000000
     99         -1.064759   1.000000
    100         -1.041208   1.000000
    101         -1.030429   1.000000
    102         -0.993967   1.000000
    103         -0.964731   1.000000
    104         -0.919001   1.000000
    105         -0.912122   1.000000
    106         -0.837876   1.000000
    107         -0.830956   1.000000
    108         -0.791461   1.000000
    109         -0.790432   1.000000
    110         -0.740214   1.000000
    111         -0.657086   1.000000
    112         -0.626715   1.000000
    113         -0.616944   1.000000
    114         -0.596044   1.000000
    115         -0.585821   1.000000
    116         -0.577425   1.000000
    117         -0.543961   1.000000
    118         -0.531257   1.000000
    119         -0.522273   1.000000
    120         -0.516038   1.000000
    121         -0.509618   1.000000
    122         -0.503588   1.000000
    123         -0.481997   1.000000
    124         -0.473302   1.000000
    125         -0.430258   1.000000
    126         -0.407003   1.000000
    127         -0.378859   1.000000
    128         -0.365400   1.000000
    129         -0.341987   1.000000
    130         -0.327970   1.000000
    131         -0.231601   1.000000
    132         -0.224971   1.000000
    133         -0.196842   1.000000
    134         -0.189638   1.000000
    135         -0.171454   1.000000
    136         -0.157684   1.000000
    137         -0.156593   1.000000
    138         -0.117069   1.000000
    139         -0.098945   1.000000
    140         -0.071436   1.000000
    141          0.013379   1.000000
    142          0.026443   1.000000
    143          0.037190   1.000000
    144          0.063924   1.000000
    145          0.075516   1.000000
    146          0.108650   1.000000
    147          0.123716   1.000000
    148          0.125916   1.000000
    149          0.140966   1.000000
    150          0.144255   1.000000
    151          0.228389   1.000000
    152          0.282200   1.000000
    153          0.317629   1.000000
    154          0.346392   1.000000
    155          0.373487   1.000000
    156          0.397903   1.000000
    157          0.419600   1.000000
    158          0.425530   1.000000
    159          0.454487   1.000000
    160          0.459190   1.000000
    161          0.478109   1.000000
    162          0.495954   1.000000
    163          0.505255   1.000000
    164          0.523855   1.000000
    165          0.531715   1.000000
    166          0.587602   1.000002
    167          0.637259   1.000056
    168          0.639957   1.000065
    169          0.663191   1.000233
    170          0.676472   1.000456
    171          0.695970   1.001141
    172          0.706282   1.001787
    173          0.715627   1.002627
    174          0.719884   1.003109
    175          0.737365   1.005925
    176          0.746251   1.007980
    177          0.767329   1.014827
    178          0.808807   1.032645
    179          0.842518   1.028627
    180          0.850355   1.020403
    181          0.889909   0.903206
    182          0.916452   0.740618
    183          0.929960   0.636330
    184          0.940074   0.552658
    185          0.950071   0.468193
    186          0.975057   0.267507
    187          0.982650   0.213813
    188          0.994388   0.140634
    189          1.053967  -0.031358
    190          1.127541  -0.013963
    191          1.240356  -0.000130
    192          1.243138  -0.000111
    193          1.732600  -0.000000
    194          1.805305  -0.000000
    195          1.809566  -0.000000
    196          1.976440  -0.000000
    197          1.985752  -0.000000
    198          2.090102  -0.000000
    199          2.270329  -0.000000
    200          2.414167  -0.000000
    201          2.417448  -0.000000
    202          2.852792  -0.000000
    203          3.407172   0.000000
    204          3.484642   0.000000
    205          3.610005   0.000000
    206          3.705004   0.000000
    207          3.755691   0.000000
    208          3.855293   0.000000
    209          4.070958   0.000000
    210          4.193422   0.000000
    211          4.408361   0.000000
    212          4.501030   0.000000
    213          5.028330   0.000000
    214          5.042555   0.000000
    215          5.420776   0.000000
    216          5.461973   0.000000
    217          5.519087   0.000000
    218          5.737839   0.000000
    219          5.822070   0.000000
    220          6.248553   0.000000
