       N       E                     dE             d eps       ncg     rms          rms(c)
DAV:   1     0.210864847916E+04    0.21086E+04   -0.14719E+05   880   0.119E+03
DAV:   2    -0.624035408125E+02   -0.21711E+04   -0.20230E+04   984   0.282E+02
DAV:   3    -0.190662968124E+03   -0.12826E+03   -0.11419E+03  1008   0.610E+01
DAV:   4    -0.195757683720E+03   -0.50947E+01   -0.49369E+01  1040   0.119E+01
DAV:   5    -0.195931480175E+03   -0.17380E+00   -0.17356E+00  1152   0.226E+00    0.381E+01
RMM:   6    -0.189496191295E+03    0.64353E+01   -0.24598E+01   913   0.116E+01    0.238E+01
RMM:   7    -0.292633712531E+03   -0.10314E+03   -0.71366E+01  1141   0.121E+01    0.672E+01
RMM:   8    -0.208556955967E+03    0.84077E+02   -0.35110E+01   985   0.101E+01    0.367E+01
RMM:   9    -0.189898428385E+03    0.18659E+02   -0.15560E+01   950   0.813E+00    0.165E+01
RMM:  10    -0.188066738517E+03    0.18317E+01   -0.74141E+00   926   0.528E+00    0.118E+01
RMM:  11    -0.187353196949E+03    0.71354E+00   -0.28122E+00   936   0.331E+00    0.786E+00
RMM:  12    -0.187642583934E+03   -0.28939E+00   -0.13176E+00   930   0.224E+00    0.938E+00
RMM:  13    -0.187139945050E+03    0.50264E+00   -0.65881E-01   926   0.176E+00    0.518E+00
RMM:  14    -0.186895468999E+03    0.24448E+00   -0.25586E-01   925   0.105E+00    0.246E+00
RMM:  15    -0.186864093329E+03    0.31376E-01   -0.10944E-01   939   0.621E-01    0.196E+00
RMM:  16    -0.186839041118E+03    0.25052E-01   -0.49783E-02   940   0.458E-01    0.118E+00
RMM:  17    -0.186845290414E+03   -0.62493E-02   -0.22399E-02   943   0.290E-01    0.150E+00
RMM:  18    -0.186832338120E+03    0.12952E-01   -0.14808E-02   955   0.255E-01    0.920E-01
RMM:  19    -0.186825714142E+03    0.66240E-02   -0.96906E-03   949   0.189E-01    0.516E-01
RMM:  20    -0.186824193266E+03    0.15209E-02   -0.59335E-03   970   0.142E-01    0.402E-01
RMM:  21    -0.186822958140E+03    0.12351E-02   -0.24127E-03   950   0.901E-02    0.219E-01
RMM:  22    -0.186822782738E+03    0.17540E-03   -0.16395E-03   973   0.704E-02    0.292E-01
RMM:  23    -0.186822410011E+03    0.37273E-03   -0.10264E-03   960   0.612E-02    0.303E-01
RMM:  24    -0.186821743066E+03    0.66694E-03   -0.56722E-04   802   0.425E-02    0.141E-01
RMM:  25    -0.186821935144E+03   -0.19208E-03   -0.33617E-04   659   0.331E-02    0.889E-02
RMM:  26    -0.186822259771E+03   -0.32463E-03   -0.28591E-04   642   0.290E-02    0.996E-02
RMM:  27    -0.186823760303E+03   -0.15005E-02   -0.39506E-04   700   0.299E-02    0.343E-01
RMM:  28    -0.186823635726E+03    0.12458E-03   -0.12541E-04   556   0.216E-02    0.328E-01
RMM:  29    -0.186822635154E+03    0.10006E-02   -0.10791E-04   550   0.161E-02    0.102E-01
RMM:  30    -0.186822890269E+03   -0.25511E-03   -0.65605E-05   546   0.150E-02    0.604E-02
RMM:  31    -0.186824370528E+03   -0.14803E-02   -0.48363E-04   750   0.303E-02    0.349E-01
RMM:  32    -0.186823673096E+03    0.69743E-03   -0.49576E-05   540   0.166E-02    0.237E-01
RMM:  33    -0.186823415569E+03    0.25753E-03   -0.34181E-05   518   0.101E-02    0.132E-01
RMM:  34    -0.186823507871E+03   -0.92302E-04   -0.17742E-05   486   0.783E-03
   1 F= -.18682351E+03 E0= -.18679210E+03  d E =-.942261E-01
