<?xml version="1.0" encoding="ISO-8859-1"?>
<modeling>
 <generator>
  <i name="program" type="string">vasp </i>
  <i name="version" type="string">6.4.3  </i>
  <i name="subversion" type="string">19Mar24 (build Oct  2 2024 09:01:45) complex                          parallel </i>
  <i name="platform" type="string">LinuxGNU </i>
  <i name="date" type="string">2025 02 22 </i>
  <i name="time" type="string">13:34:58 </i>
 </generator>
 <incar>
  <i type="string" name="PREC">Accurate</i>
  <i type="string" name="ALGO">Fast</i>
  <i type="int" name="ICHARG">     2</i>
  <i type="int" name="IBRION">    -1</i>
  <i name="EDIFF">      0.00010000</i>
  <i name="EDIFFG">     -0.03000000</i>
  <i type="int" name="ISYM">     0</i>
  <i name="ENCUT">    400.00000000</i>
  <i type="string" name="LREAL">Auto</i>
  <i type="int" name="ISMEAR">     1</i>
  <i name="SIGMA">      0.10000000</i>
  <i type="logical" name="LWAVE"> F  </i>
  <i type="logical" name="LCHARG"> F  </i>
  <i type="string" name="GGA">PE</i>
  <i type="logical" name="LDIPOL"> T  </i>
  <i type="int" name="IDIPOL">     3</i>
 </incar>
 <primitive_cell>
  <structure name="primitive_cell" >
   <crystal>
    <varray name="basis" >
     <v>       8.35800215       0.00000000       0.00000000 </v>
     <v>       0.00000000       8.35800215       0.00000000 </v>
     <v>       0.00000000       0.00000000      19.91000000 </v>
    </varray>
    <i name="volume">   1390.83694200 </i>
    <varray name="rec_basis" >
     <v>       0.11964582       0.00000000       0.00000000 </v>
     <v>       0.00000000       0.11964582       0.00000000 </v>
     <v>       0.00000000       0.00000000       0.05022602 </v>
    </varray>
   </crystal>
   <varray name="positions" >
    <v>       0.16666667       0.16666667       0.00000000 </v>
    <v>       0.50000000       0.16666667       0.00000000 </v>
    <v>       0.83333333       0.16666667       0.00000000 </v>
    <v>       0.16666667       0.50000000       0.00000000 </v>
    <v>       0.50000000       0.50000000       0.00000000 </v>
    <v>       0.83333333       0.50000000       0.00000000 </v>
    <v>       0.16666667       0.83333333       0.00000000 </v>
    <v>       0.50000000       0.83333333       0.00000000 </v>
    <v>       0.83333333       0.83333333       0.00000000 </v>
    <v>       0.00000000       0.00000000       0.09894525 </v>
    <v>       0.33333333       0.00000000       0.09894525 </v>
    <v>       0.66666667       0.00000000       0.09894525 </v>
    <v>       0.00000000       0.33333333       0.09894525 </v>
    <v>       0.33333333       0.33333333       0.09894525 </v>
    <v>       0.66666667       0.33333333       0.09894525 </v>
    <v>       0.00000000       0.66666667       0.09894525 </v>
    <v>       0.33333333       0.66666667       0.09894525 </v>
    <v>       0.66666667       0.66666667       0.09894525 </v>
    <v>       0.16791796       0.16776752       0.19783517 </v>
    <v>       0.49768366       0.16738138       0.19751987 </v>
    <v>       0.83291904       0.16570856       0.19630799 </v>
    <v>       0.16733475       0.49775003       0.19750055 </v>
    <v>       0.49797031       0.49783188       0.19729006 </v>
    <v>       0.83282881       0.50043795       0.19627074 </v>
    <v>       0.16567903       0.83289428       0.19630674 </v>
    <v>       0.50039948       0.83280535       0.19626484 </v>
    <v>       0.83305667       0.83309130       0.19606477 </v>
    <v>       0.99840936       0.99845428       0.29484484 </v>
    <v>       0.33300461       0.99656483       0.29408601 </v>
    <v>       0.66687001       0.99860071       0.29480327 </v>
    <v>       0.99710769       0.33299244       0.29404154 </v>
    <v>       0.33212060       0.33101481       0.30321050 </v>
    <v>       0.66682191       0.33272960       0.29371537 </v>
    <v>       0.99857774       0.66689389       0.29479029 </v>
    <v>       0.33272691       0.66637751       0.29370479 </v>
    <v>       0.66673890       0.66677792       0.29465678 </v>
    <v>       0.48994049       0.33814957       0.43176021 </v>
    <v>       0.32372911       0.50209169       0.42810715 </v>
    <v>       0.32995375       0.34074956       0.41889927 </v>
   </varray>
  </structure>
  <varray name="primitive_index" >
   <v type="int" >        1 </v>
   <v type="int" >        2 </v>
   <v type="int" >        3 </v>
   <v type="int" >        4 </v>
   <v type="int" >        5 </v>
   <v type="int" >        6 </v>
   <v type="int" >        7 </v>
   <v type="int" >        8 </v>
   <v type="int" >        9 </v>
   <v type="int" >       10 </v>
   <v type="int" >       11 </v>
   <v type="int" >       12 </v>
   <v type="int" >       13 </v>
   <v type="int" >       14 </v>
   <v type="int" >       15 </v>
   <v type="int" >       16 </v>
   <v type="int" >       17 </v>
   <v type="int" >       18 </v>
   <v type="int" >       19 </v>
   <v type="int" >       20 </v>
   <v type="int" >       21 </v>
   <v type="int" >       22 </v>
   <v type="int" >       23 </v>
   <v type="int" >       24 </v>
   <v type="int" >       25 </v>
   <v type="int" >       26 </v>
   <v type="int" >       27 </v>
   <v type="int" >       28 </v>
   <v type="int" >       29 </v>
   <v type="int" >       30 </v>
   <v type="int" >       31 </v>
   <v type="int" >       32 </v>
   <v type="int" >       33 </v>
   <v type="int" >       34 </v>
   <v type="int" >       35 </v>
   <v type="int" >       36 </v>
   <v type="int" >       37 </v>
   <v type="int" >       38 </v>
   <v type="int" >       39 </v>
  </varray>
 </primitive_cell>
 <kpoints>
  <generation param="Monkhorst-Pack">
   <v type="int" name="divisions">       2        2        1 </v>
   <v name="usershift">      0.00000000       0.00000000       0.00000000 </v>
   <v name="genvec1">      0.50000000       0.00000000       0.00000000 </v>
   <v name="genvec2">      0.00000000       0.50000000       0.00000000 </v>
   <v name="genvec3">      0.00000000       0.00000000       1.00000000 </v>
   <v name="shift">      0.50000000       0.50000000       0.00000000 </v>
  </generation>
  <varray name="kpointlist" >
   <v>       0.25000000       0.25000000       0.00000000 </v>
   <v>      -0.25000000       0.25000000       0.00000000 </v>
  </varray>
  <varray name="weights" >
   <v>       0.50000000 </v>
   <v>       0.50000000 </v>
  </varray>
 </kpoints>
 <parameters>
  <separator name="general" >
   <i type="string" name="SYSTEM">unknown system</i>
   <i type="logical" name="LCOMPAT"> F  </i>
  </separator>
  <separator name="electronic" >
   <i type="string" name="PREC">accura</i>
   <i name="ENMAX">    400.00000000</i>
   <i name="ENAUG">    416.23000000</i>
   <i name="EDIFF">      0.00010000</i>
   <i type="int" name="IALGO">    68</i>
   <i type="int" name="IWAVPR">    10</i>
   <i type="int" name="NBANDS">   220</i>
   <i type="int" name="NBANDSLOW">    -1</i>
   <i type="int" name="NBANDSHIGH">    -1</i>
   <i name="NELECT">    368.00000000</i>
   <i type="int" name="TURBO">     0</i>
   <i type="int" name="IRESTART">     0</i>
   <i type="int" name="NREBOOT">     0</i>
   <i type="int" name="NMIN">     0</i>
   <i name="EREF">      0.00000000</i>
   <separator name="electronic smearing" >
    <i type="int" name="ISMEAR">     1</i>
    <i name="SIGMA">      0.10000000</i>
    <i name="KSPACING">      0.50000000</i>
    <i type="logical" name="KGAMMA"> T  </i>
    <i type="logical" name="KBLOWUP"> T  </i>
   </separator>
   <separator name="electronic projectors" >
    <i type="logical" name="LREAL"> T  </i>
    <v name="ROPT">     -0.00025000     -0.00025000     -0.00025000</v>
    <i type="int" name="LMAXPAW">  -100</i>
    <i type="int" name="LMAXMIX">     2</i>
    <i type="logical" name="NLSPLINE"> F  </i>
   </separator>
   <separator name="electronic startup" >
    <i type="int" name="ISTART">     0</i>
    <i type="int" name="ICHARG">     2</i>
    <i type="int" name="INIWAV">     1</i>
   </separator>
   <separator name="electronic spin" >
    <i type="int" name="ISPIN">     1</i>
    <i type="logical" name="LNONCOLLINEAR"> F  </i>
    <v name="MAGMOM">      1.00000000      1.00000000      1.00000000      1.00000000      1.00000000      1.00000000      1.00000000      1.00000000      1.00000000      1.00000000      1.00000000      1.00000000      1.00000000      1.00000000      1.00000000      1.00000000      1.00000000      1.00000000      1.00000000      1.00000000
      1.00000000      1.00000000      1.00000000      1.00000000      1.00000000      1.00000000      1.00000000      1.00000000      1.00000000      1.00000000      1.00000000      1.00000000      1.00000000      1.00000000      1.00000000      1.00000000      1.00000000      1.00000000      1.00000000</v>
    <i name="NUPDOWN">     -1.00000000</i>
    <i type="logical" name="LSORBIT"> F  </i>
    <v name="SAXIS">      0.00000000      0.00000000      1.00000000</v>
    <i type="logical" name="LSPIRAL"> F  </i>
    <v name="QSPIRAL">      0.00000000      0.00000000      0.00000000</v>
    <i type="logical" name="LZEROZ"> F  </i>
   </separator>
   <separator name="electronic exchange-correlation" >
    <i type="logical" name="LASPH"> F  </i>
   </separator>
   <separator name="electronic convergence" >
    <i type="int" name="NELM">    60</i>
    <i type="int" name="NELMDL">    -5</i>
    <i type="int" name="NELMIN">     2</i>
    <i name="ENINI">    400.00000000</i>
    <separator name="electronic convergence detail" >
     <i type="logical" name="LDIAG"> T  </i>
     <i type="logical" name="LSUBROT"> F  </i>
     <i name="WEIMIN">      0.00000000</i>
     <i name="EBREAK">      0.00000011</i>
     <i name="DEPER">      0.30000000</i>
     <i type="int" name="NRMM">     4</i>
     <i name="TIME">      0.40000000</i>
    </separator>
   </separator>
   <separator name="electronic mixer" >
    <i name="AMIX">      0.40000000</i>
    <i name="BMIX">      1.00000000</i>
    <i name="AMIN">      0.10000000</i>
    <i name="AMIX_MAG">      1.60000000</i>
    <i name="BMIX_MAG">      1.00000000</i>
    <separator name="electronic mixer details" >
     <i type="int" name="IMIX">     4</i>
     <i type="logical" name="MIXFIRST"> F  </i>
     <i type="int" name="MAXMIX">   -45</i>
     <i name="WC">    100.00000000</i>
     <i type="int" name="INIMIX">     1</i>
     <i type="int" name="MIXPRE">     1</i>
     <i type="int" name="MREMOVE">     5</i>
    </separator>
   </separator>
   <separator name="electronic dipolcorrection" >
    <i type="logical" name="LDIPOL"> T  </i>
    <i type="logical" name="LMONO"> F  </i>
    <i type="int" name="IDIPOL">     3</i>
    <i name="EPSILON">      1.00000000</i>
    <v name="DIPOL">   -100.00000000   -100.00000000   -100.00000000</v>
    <i name="EFIELD">      0.00000000</i>
    <i type="logical" name="LVACPOTAV"> F  </i>
   </separator>
  </separator>
  <separator name="grids" >
   <i type="int" name="NGX">    56</i>
   <i type="int" name="NGY">    56</i>
   <i type="int" name="NGZ">   140</i>
   <i type="int" name="NGXF">   112</i>
   <i type="int" name="NGYF">   112</i>
   <i type="int" name="NGZF">   280</i>
   <i type="logical" name="ADDGRID"> F  </i>
  </separator>
  <separator name="ionic" >
   <i type="int" name="NSW">     0</i>
   <i type="int" name="IBRION">    -1</i>
   <i type="int" name="MDALGO">     0</i>
   <i type="int" name="ISIF">     2</i>
   <i name="PSTRESS">      0.00000000</i>
   <i name="EDIFFG">     -0.03000000</i>
   <i type="int" name="NFREE">     0</i>
   <i name="POTIM">      0.50000000</i>
   <i name="SMASS">     -3.00000000</i>
   <i name="SCALEE">      1.00000000</i>
  </separator>
  <separator name="ionic md" >
   <i name="TEBEG">      0.00010000</i>
   <i name="TEEND">      0.00010000</i>
   <i type="int" name="NBLOCK">     1</i>
   <i type="int" name="KBLOCK">     1</i>
   <i type="int" name="NPACO">   256</i>
   <i name="APACO">     10.00000000</i>
  </separator>
  <separator name="symmetry" >
   <i type="int" name="ISYM">     0</i>
   <i name="SYMPREC">      0.00001000</i>
  </separator>
  <separator name="dos" >
   <i type="int" name="LORBIT">     0</i>
   <v name="RWIGS">     -1.00000000     -1.00000000     -1.00000000</v>
   <i type="int" name="NEDOS">   301</i>
   <i name="EMIN">     10.00000000</i>
   <i name="EMAX">    -10.00000000</i>
   <i name="EFERMI">      0.00000000</i>
  </separator>
  <separator name="writing" >
   <i type="int" name="NWRITE">     2</i>
   <i type="logical" name="LWAVE"> F  </i>
   <i type="logical" name="LDOWNSAMPLE"> F  </i>
   <i type="logical" name="LCHARG"> F  </i>
   <i type="logical" name="LPARD"> F  </i>
   <i type="logical" name="LVTOT"> F  </i>
   <i type="logical" name="LVHAR"> F  </i>
   <i type="logical" name="LELF"> F  </i>
   <i type="logical" name="LOPTICS"> F  </i>
   <v name="STM">      0.00000000      0.00000000      0.00000000      0.00000000      0.00000000      0.00000000      0.00000000</v>
  </separator>
  <separator name="performance" >
   <i type="int" name="NPAR">     2</i>
   <i type="int" name="NSIM">     4</i>
   <i type="int" name="NBLK">    -1</i>
   <i type="logical" name="LPLANE"> T  </i>
   <i type="logical" name="LSCALAPACK"> T  </i>
   <i type="logical" name="LSCAAWARE"> F  </i>
   <i type="logical" name="LSCALU"> F  </i>
   <i type="logical" name="LASYNC"> F  </i>
   <i type="logical" name="LORBITALREAL"> F  </i>
  </separator>
  <separator name="miscellaneous" >
   <i type="int" name="IDIOT">     3</i>
   <i type="int" name="PHON_NSTRUCT">    -1</i>
   <i type="logical" name="LMUSIC"> F  </i>
   <v name="POMASS">    106.42000000      1.00000000     32.06600000</v>
   <v name="DARWINR">      0.00000000      0.00000000      0.00000000</v>
   <v name="DARWINV">      1.00000000      1.00000000      1.00000000</v>
   <i type="logical" name="LCORR"> T  </i>
  </separator>
  <i type="logical" name="GGA_COMPAT"> T  </i>
  <i type="logical" name="LBERRY"> F  </i>
  <i type="int" name="ICORELEVEL">     0</i>
  <i type="logical" name="LDAU"> F  </i>
  <i type="int" name="I_CONSTRAINED_M">     0</i>
  <separator name="electronic exchange-correlation" >
   <i type="string" name="GGA    ">PE</i>
   <i type="string" name="XC_C">1</i>
   <i type="int" name="VOSKOWN">     0</i>
   <i type="logical" name="LHFCALC"> F  </i>
   <i type="string" name="PRECFOCK"></i>
   <i type="logical" name="LSYMGRAD"> F  </i>
   <i type="logical" name="LHFONE"> F  </i>
   <i type="logical" name="LRHFCALC"> F  </i>
   <i type="logical" name="LTHOMAS"> F  </i>
   <i type="logical" name="LMODELHF"> F  </i>
   <i type="logical" name="LFOCKACE"> F  </i>
   <i name="ENCUT4O">     -1.00000000</i>
   <i type="int" name="EXXOEP">     0</i>
   <i type="int" name="FOURORBIT">     0</i>
   <i name="AEXX">      0.00000000</i>
   <i name="HFALPHA">      0.00000000</i>
   <i name="MCALPHA">      0.00000000</i>
   <i name="ALDAX">      1.00000000</i>
   <i name="AGGAX">      1.00000000</i>
   <i name="AMGGAX">      1.00000000</i>
   <i name="ALDAC">      1.00000000</i>
   <i name="AGGAC">      1.00000000</i>
   <i name="AMGGAC">      1.00000000</i>
   <i type="int" name="NKREDX">     1</i>
   <i type="int" name="NKREDY">     1</i>
   <i type="int" name="NKREDZ">     1</i>
   <i type="logical" name="SHIFTRED"> F  </i>
   <i type="logical" name="ODDONLY"> F  </i>
   <i type="logical" name="EVENONLY"> F  </i>
   <i type="int" name="LMAXFOCK">     0</i>
   <i type="int" name="NMAXFOCKAE">     0</i>
   <i type="logical" name="LFOCKAEDFT"> F  </i>
   <i name="HFSCREEN">      0.00000000</i>
   <i name="HFSCREENC">      0.00000000</i>
   <i type="int" name="NBANDSGWLOW">     0</i>
  </separator>
  <separator name="vdW DFT" >
   <i type="logical" name="LUSE_VDW"> F  </i>
   <i type="int" name="IVDW_NL">    -1</i>
   <i type="logical" name="LSPIN_VDW"> F  </i>
   <i name="ZAB_VDW">     -0.84910000</i>
   <i name="GAMMA_VDW">      1.39626340</i>
   <i name="ALPHA_VDW">      0.00000000</i>
   <i name="PARAM1">      0.12340000</i>
   <i name="PARAM2">      1.00000000</i>
   <i name="BPARAM">      6.30000000</i>
   <i name="CPARAM">      0.00930000</i>
  </separator>
  <separator name="model GW" >
   <i type="int" name="MODEL_GW">     0</i>
   <i name="MODEL_EPS0">     21.39749142</i>
   <i name="MODEL_ALPHA">      1.00000000</i>
  </separator>
  <separator name="linear response parameters" >
   <i type="logical" name="LEPSILON"> F  </i>
   <i type="logical" name="LRPA"> F  </i>
   <i type="logical" name="LNABLA"> F  </i>
   <i type="logical" name="LVEL"> F  </i>
   <i name="CSHIFT">      0.10000000</i>
   <i name="OMEGAMAX">     -1.00000000</i>
   <i name="DEG_THRESHOLD">      0.00200000</i>
   <i name="RTIME">     -0.10000000</i>
   <i name="WPLASMAI">      0.00000000</i>
   <v name="DFIELD">      0.00000000      0.00000000      0.00000000</v>
   <v name="WPLASMA">      0.00000000      0.00000000      0.00000000      0.00000000      0.00000000      0.00000000      0.00000000      0.00000000      0.00000000</v>
  </separator>
  <separator name="orbital magnetization" >
   <i type="logical" name="NUCIND"> F  </i>
   <v name="MAGPOS">      0.00000000      0.00000000      0.00000000</v>
   <i type="logical" name="LNICSALL"> T  </i>
   <i type="logical" name="ORBITALMAG"> F  </i>
   <i type="logical" name="LMAGBLOCH"> F  </i>
   <i type="logical" name="LCHIMAG"> F  </i>
   <i type="logical" name="LGAUGE"> T  </i>
   <i type="int" name="MAGATOM">     0</i>
   <v name="MAGDIPOL">      0.00000000      0.00000000      0.00000000</v>
   <v name="AVECCONST">      0.00000000      0.00000000      0.00000000</v>
  </separator>
  <separator name="response functions" >
   <i type="logical" name="LALL_IN_ONE"> F  </i>
   <i type="int" name="IALL_IN_ONE">    -1</i>
   <i type="int" name="NBANDS_WAVE">    -1</i>
   <i type="logical" name="LFINITE_TEMPERATURE"> F  </i>
   <i type="logical" name="LADDER"> F  </i>
   <i type="logical" name="LRPAFORCE"> F  </i>
   <i type="logical" name="LFXC"> F  </i>
   <i type="logical" name="LHARTREE"> T  </i>
   <i type="int" name="IBSE">     0</i>
   <v type="int" name="KPOINT">    -1     0     0     0</v>
   <i type="logical" name="LTCTC"> F  </i>
   <i type="logical" name="LTCTE"> F  </i>
   <i type="logical" name="LTETE"> F  </i>
   <i type="logical" name="LTRIPLET"> F  </i>
   <i type="logical" name="LFXCEPS"> F  </i>
   <i type="logical" name="LFXHEG"> F  </i>
   <i type="int" name="NATURALO">     2</i>
   <i type="logical" name="LHOLEGF"> F  </i>
   <i type="logical" name="L2ORDER"> F  </i>
   <i type="logical" name="LDMP1"> F  </i>
   <i type="logical" name="LMP2LT"> F  </i>
   <i type="logical" name="LSMP2LT"> F  </i>
   <i type="logical" name="LGWLF"> F  </i>
   <i name="ENCUTGW">     -1.60000002</i>
   <i name="ENCUTGWSOFT">     -1.60000002</i>
   <i name="ENCUTLF">     -1.00000000</i>
   <i type="logical" name="ESF_SPLINES"> F  </i>
   <i name="ESF_CONV">      0.01000000</i>
   <i type="int" name="ESF_NINTER">    15</i>
   <i type="int" name="LMAXMP2">    -1</i>
   <i name="SCISSOR">      0.00000000</i>
   <i type="int" name="NOMEGA">     0</i>
   <i type="int" name="NOMEGAR">     0</i>
   <i type="int" name="NBANDSGW">    -1</i>
   <i type="int" name="NBANDSO">    -1</i>
   <i type="int" name="NBANDSV">    -1</i>
   <i type="int" name="NELMGW">     1</i>
   <i type="int" name="NELMHF">     1</i>
   <i type="int" name="DIM">     3</i>
   <i type="int" name="IESPILON">     4</i>
   <i type="int" name="ANTIRES">     0</i>
   <i name="OMEGAMAX">    -30.00000000</i>
   <i name="OMEGAMIN">    -30.00000000</i>
   <i name="OMEGATL">   -200.00000000</i>
   <i type="int" name="OMEGAGRID">     0</i>
   <i name="CSHIFT">     -0.10000000</i>
   <i type="logical" name="LSELFENERGY"> F  </i>
   <i type="logical" name="LSPECTRAL"> F  </i>
   <i type="logical" name="LSPECTRALGW"> F  </i>
   <i type="logical" name="LSINGLES"> F  </i>
   <i type="logical" name="LFERMIGW"> F  </i>
   <i type="logical" name="ODDONLYGW"> F  </i>
   <i type="logical" name="EVENONLYGW"> F  </i>
   <i type="int" name="NKREDLFX">     1</i>
   <i type="int" name="NKREDLFY">     1</i>
   <i type="int" name="NKREDLFZ">     1</i>
   <i type="int" name="MAXMEM">  2800</i>
   <i type="int" name="TELESCOPE">     0</i>
   <i type="int" name="NTAUPAR">    -1</i>
   <i type="int" name="NOMEGAPAR">    -1</i>
   <i name="DAMP_NEWTON">      0.80000001</i>
   <i name="LAMBDA">      1.00000000</i>
  </separator>
  <separator name="External order field" >
   <i name="OFIELD_KAPPA">      0.00000000</i>
   <v name="OFIELD_K">      0.00000000      0.00000000      0.00000000</v>
   <i name="OFIELD_Q6_NEAR">      0.00000000</i>
   <i name="OFIELD_Q6_FAR">      0.00000000</i>
   <i name="OFIELD_A">      0.00000000</i>
  </separator>
  <separator name="optional k-points parameters" >
   <i type="int" name="KPOINTS_OPT_MODE">     1</i>
   <i type="logical" name="LKPOINTS_OPT"> F  </i>
  </separator>
 </parameters>
 <atominfo>
  <atoms>      39 </atoms>
  <types>       3 </types>
  <array name="atoms" >
   <dimension dim="1">ion</dimension>
   <field type="string">element</field>
   <field type="int">atomtype</field>
   <set>
    <rc><c>Pd</c><c>   1</c></rc>
    <rc><c>Pd</c><c>   1</c></rc>
    <rc><c>Pd</c><c>   1</c></rc>
    <rc><c>Pd</c><c>   1</c></rc>
    <rc><c>Pd</c><c>   1</c></rc>
    <rc><c>Pd</c><c>   1</c></rc>
    <rc><c>Pd</c><c>   1</c></rc>
    <rc><c>Pd</c><c>   1</c></rc>
    <rc><c>Pd</c><c>   1</c></rc>
    <rc><c>Pd</c><c>   1</c></rc>
    <rc><c>Pd</c><c>   1</c></rc>
    <rc><c>Pd</c><c>   1</c></rc>
    <rc><c>Pd</c><c>   1</c></rc>
    <rc><c>Pd</c><c>   1</c></rc>
    <rc><c>Pd</c><c>   1</c></rc>
    <rc><c>Pd</c><c>   1</c></rc>
    <rc><c>Pd</c><c>   1</c></rc>
    <rc><c>Pd</c><c>   1</c></rc>
    <rc><c>Pd</c><c>   1</c></rc>
    <rc><c>Pd</c><c>   1</c></rc>
    <rc><c>Pd</c><c>   1</c></rc>
    <rc><c>Pd</c><c>   1</c></rc>
    <rc><c>Pd</c><c>   1</c></rc>
    <rc><c>Pd</c><c>   1</c></rc>
    <rc><c>Pd</c><c>   1</c></rc>
    <rc><c>Pd</c><c>   1</c></rc>
    <rc><c>Pd</c><c>   1</c></rc>
    <rc><c>Pd</c><c>   1</c></rc>
    <rc><c>Pd</c><c>   1</c></rc>
    <rc><c>Pd</c><c>   1</c></rc>
    <rc><c>Pd</c><c>   1</c></rc>
    <rc><c>Pd</c><c>   1</c></rc>
    <rc><c>Pd</c><c>   1</c></rc>
    <rc><c>Pd</c><c>   1</c></rc>
    <rc><c>Pd</c><c>   1</c></rc>
    <rc><c>Pd</c><c>   1</c></rc>
    <rc><c>H </c><c>   2</c></rc>
    <rc><c>H </c><c>   2</c></rc>
    <rc><c>S </c><c>   3</c></rc>
   </set>
  </array>
  <array name="atomtypes" >
   <dimension dim="1">type</dimension>
   <field type="int">atomspertype</field>
   <field type="string">element</field>
   <field>mass</field>
   <field>valence</field>
   <field type="string">pseudopotential</field>
   <set>
    <rc><c>  36</c><c>Pd</c><c>    106.42000000</c><c>     10.00000000</c><c>  PAW_PBE Pd 04Jan2005                  </c></rc>
    <rc><c>   2</c><c>H </c><c>      1.00000000</c><c>      1.00000000</c><c>  PAW_PBE H 15Jun2001                   </c></rc>
    <rc><c>   1</c><c>S </c><c>     32.06600000</c><c>      6.00000000</c><c>  PAW_PBE S 06Sep2000                   </c></rc>
   </set>
  </array>
 </atominfo>
 <structure name="initialpos" >
  <crystal>
   <varray name="basis" >
    <v>       8.35800215       0.00000000       0.00000000 </v>
    <v>       0.00000000       8.35800215       0.00000000 </v>
    <v>       0.00000000       0.00000000      19.91000000 </v>
   </varray>
   <i name="volume">   1390.83694200 </i>
   <varray name="rec_basis" >
    <v>       0.11964582       0.00000000       0.00000000 </v>
    <v>       0.00000000       0.11964582       0.00000000 </v>
    <v>       0.00000000       0.00000000       0.05022602 </v>
   </varray>
  </crystal>
  <varray name="positions" >
   <v>       0.16666667       0.16666667       0.00000000 </v>
   <v>       0.50000000       0.16666667       0.00000000 </v>
   <v>       0.83333333       0.16666667       0.00000000 </v>
   <v>       0.16666667       0.50000000       0.00000000 </v>
   <v>       0.50000000       0.50000000       0.00000000 </v>
   <v>       0.83333333       0.50000000       0.00000000 </v>
   <v>       0.16666667       0.83333333       0.00000000 </v>
   <v>       0.50000000       0.83333333       0.00000000 </v>
   <v>       0.83333333       0.83333333       0.00000000 </v>
   <v>       0.00000000       0.00000000       0.09894525 </v>
   <v>       0.33333333       0.00000000       0.09894525 </v>
   <v>       0.66666667       0.00000000       0.09894525 </v>
   <v>       0.00000000       0.33333333       0.09894525 </v>
   <v>       0.33333333       0.33333333       0.09894525 </v>
   <v>       0.66666667       0.33333333       0.09894525 </v>
   <v>       0.00000000       0.66666667       0.09894525 </v>
   <v>       0.33333333       0.66666667       0.09894525 </v>
   <v>       0.66666667       0.66666667       0.09894525 </v>
   <v>       0.16791796       0.16776752       0.19783517 </v>
   <v>       0.49768366       0.16738138       0.19751987 </v>
   <v>       0.83291904       0.16570856       0.19630799 </v>
   <v>       0.16733475       0.49775003       0.19750055 </v>
   <v>       0.49797031       0.49783188       0.19729006 </v>
   <v>       0.83282881       0.50043795       0.19627074 </v>
   <v>       0.16567903       0.83289428       0.19630674 </v>
   <v>       0.50039948       0.83280535       0.19626484 </v>
   <v>       0.83305667       0.83309130       0.19606477 </v>
   <v>       0.99840936       0.99845428       0.29484484 </v>
   <v>       0.33300461       0.99656483       0.29408601 </v>
   <v>       0.66687001       0.99860071       0.29480327 </v>
   <v>       0.99710769       0.33299244       0.29404154 </v>
   <v>       0.33212060       0.33101481       0.30321050 </v>
   <v>       0.66682191       0.33272960       0.29371537 </v>
   <v>       0.99857774       0.66689389       0.29479029 </v>
   <v>       0.33272691       0.66637751       0.29370479 </v>
   <v>       0.66673890       0.66677792       0.29465678 </v>
   <v>       0.48994049       0.33814957       0.43176021 </v>
   <v>       0.32372911       0.50209169       0.42810715 </v>
   <v>       0.32995375       0.34074956       0.41889927 </v>
  </varray>
  <varray name="selective"  type="logical" >
   <v type="logical" >  F  F  F </v>
   <v type="logical" >  F  F  F </v>
   <v type="logical" >  F  F  F </v>
   <v type="logical" >  F  F  F </v>
   <v type="logical" >  F  F  F </v>
   <v type="logical" >  F  F  F </v>
   <v type="logical" >  F  F  F </v>
   <v type="logical" >  F  F  F </v>
   <v type="logical" >  F  F  F </v>
   <v type="logical" >  F  F  F </v>
   <v type="logical" >  F  F  F </v>
   <v type="logical" >  F  F  F </v>
   <v type="logical" >  F  F  F </v>
   <v type="logical" >  F  F  F </v>
   <v type="logical" >  F  F  F </v>
   <v type="logical" >  F  F  F </v>
   <v type="logical" >  F  F  F </v>
   <v type="logical" >  F  F  F </v>
   <v type="logical" >  T  T  T </v>
   <v type="logical" >  T  T  T </v>
   <v type="logical" >  T  T  T </v>
   <v type="logical" >  T  T  T </v>
   <v type="logical" >  T  T  T </v>
   <v type="logical" >  T  T  T </v>
   <v type="logical" >  T  T  T </v>
   <v type="logical" >  T  T  T </v>
   <v type="logical" >  T  T  T </v>
   <v type="logical" >  T  T  T </v>
   <v type="logical" >  T  T  T </v>
   <v type="logical" >  T  T  T </v>
   <v type="logical" >  T  T  T </v>
   <v type="logical" >  T  T  T </v>
   <v type="logical" >  T  T  T </v>
   <v type="logical" >  T  T  T </v>
   <v type="logical" >  T  T  T </v>
   <v type="logical" >  T  T  T </v>
   <v type="logical" >  T  T  T </v>
   <v type="logical" >  T  T  T </v>
   <v type="logical" >  T  T  T </v>
  </varray>
  <nose>
   <v>      -3.00000000       0.00000000       0.00010000       0.00010000 </v>
  </nose>
 </structure>
 <calculation>
  <scstep>
   <time name="dav">    0.97    0.99</time>
   <time name="total">    1.03    1.05</time>
   <dipole>
    <v name="dipole">      0.00000000       0.00000000      -0.00005320 </v>
    <i name="Tr[quadrupol]">  -4510.35181092 </i>
    <i name="Echarged">      0.00000000 </i>
    <i name="Edipol_quadrupol">      0.00000000 </i>
    <i name="Eion">      0.00000000 </i>
   </dipole>
   <energy>
    <i name="alphaZ">    628.75211338 </i>
    <i name="ewald">  75148.50398218 </i>
    <i name="hartreedc">-105881.90888412 </i>
    <i name="XCdc">  -1046.76291021 </i>
    <i name="pawpsdc">  29264.33151030 </i>
    <i name="pawaedc"> -27021.15649540 </i>
    <i name="eentropy">      0.00390873 </i>
    <i name="bandstr">   1564.32945335 </i>
    <i name="atom">  29452.55580095 </i>
    <i name="e_fr_energy">   2108.64847916 </i>
    <i name="e_wo_entrp">   2108.64457043 </i>
    <i name="e_0_energy">   2108.64717625 </i>
   </energy>
  </scstep>
  <scstep>
   <time name="dav">    0.98    0.99</time>
   <time name="total">    0.98    0.99</time>
   <dipole>
    <v name="dipole">      0.00000000       0.00000000      -0.00005320 </v>
    <i name="Tr[quadrupol]">  -4510.35181092 </i>
    <i name="Echarged">      0.00000000 </i>
    <i name="Edipol_quadrupol">      0.00000000 </i>
    <i name="Eion">      0.00000000 </i>
   </dipole>
   <energy>
    <i name="e_fr_energy">    -62.40354081 </i>
    <i name="e_wo_entrp">    -62.42163329 </i>
    <i name="e_0_energy">    -62.40957164 </i>
   </energy>
  </scstep>
  <scstep>
   <time name="dav">    1.00    1.01</time>
   <time name="total">    1.01    1.01</time>
   <dipole>
    <v name="dipole">      0.00000000       0.00000000      -0.00005320 </v>
    <i name="Tr[quadrupol]">  -4510.35181092 </i>
    <i name="Echarged">      0.00000000 </i>
    <i name="Edipol_quadrupol">      0.00000000 </i>
    <i name="Eion">      0.00000000 </i>
   </dipole>
   <energy>
    <i name="e_fr_energy">   -190.66296812 </i>
    <i name="e_wo_entrp">   -190.60216241 </i>
    <i name="e_0_energy">   -190.64269955 </i>
   </energy>
  </scstep>
  <scstep>
   <time name="dav">    1.03    1.04</time>
   <time name="total">    1.04    1.04</time>
   <dipole>
    <v name="dipole">      0.00000000       0.00000000      -0.00005320 </v>
    <i name="Tr[quadrupol]">  -4510.35181092 </i>
    <i name="Echarged">      0.00000000 </i>
    <i name="Edipol_quadrupol">      0.00000000 </i>
    <i name="Eion">      0.00000000 </i>
   </dipole>
   <energy>
    <i name="e_fr_energy">   -195.75768372 </i>
    <i name="e_wo_entrp">   -195.68087538 </i>
    <i name="e_0_energy">   -195.73208094 </i>
   </energy>
  </scstep>
  <scstep>
   <time name="dav">    1.13    1.13</time>
   <time name="total">    1.18    1.19</time>
   <dipole>
    <v name="dipole">      0.00000000       0.00000000      -0.00005320 </v>
    <i name="Tr[quadrupol]">  -4510.35181092 </i>
    <i name="Echarged">      0.00000000 </i>
    <i name="Edipol_quadrupol">      0.00000000 </i>
    <i name="Eion">      0.00000000 </i>
   </dipole>
   <energy>
    <i name="e_fr_energy">   -195.93148018 </i>
    <i name="e_wo_entrp">   -195.85461782 </i>
    <i name="e_0_energy">   -195.90585939 </i>
   </energy>
  </scstep>
  <scstep>
   <time name="diag">    0.17    0.17</time>
   <time name="diis">    0.57    0.57</time>
   <time name="orth">    0.03    0.03</time>
   <time name="total">    0.87    0.88</time>
   <dipole>
    <v name="dipole">      0.00000000       0.00000000      -0.39416907 </v>
    <i name="Tr[quadrupol]">  -4514.49773592 </i>
    <i name="Echarged">      0.00000000 </i>
    <i name="Edipol_quadrupol">      0.00000000 </i>
    <i name="Eion">      0.00000000 </i>
   </dipole>
   <energy>
    <i name="e_fr_energy">   -189.49619129 </i>
    <i name="e_wo_entrp">   -189.53020854 </i>
    <i name="e_0_energy">   -189.50753038 </i>
   </energy>
  </scstep>
  <scstep>
   <time name="diag">    0.17    0.17</time>
   <time name="diis">    0.72    0.72</time>
   <time name="orth">    0.02    0.02</time>
   <time name="total">    1.01    1.02</time>
   <dipole>
    <v name="dipole">      0.00000000       0.00000000       2.36689643 </v>
    <i name="Tr[quadrupol]">  -4518.28101934 </i>
    <i name="Echarged">      0.00000000 </i>
    <i name="Edipol_quadrupol">      0.00000000 </i>
    <i name="Eion">      0.00000000 </i>
   </dipole>
   <energy>
    <i name="e_fr_energy">   -292.63371253 </i>
    <i name="e_wo_entrp">   -292.56127605 </i>
    <i name="e_0_energy">   -292.60956704 </i>
   </energy>
  </scstep>
  <scstep>
   <time name="diag">    0.17    0.17</time>
   <time name="diis">    0.63    0.63</time>
   <time name="orth">    0.02    0.03</time>
   <time name="total">    0.93    0.93</time>
   <dipole>
    <v name="dipole">      0.00000000       0.00000000       0.03479133 </v>
    <i name="Tr[quadrupol]">  -4521.32813536 </i>
    <i name="Echarged">      0.00000000 </i>
    <i name="Edipol_quadrupol">      0.00000000 </i>
    <i name="Eion">      0.00000000 </i>
   </dipole>
   <energy>
    <i name="e_fr_energy">   -208.55695597 </i>
    <i name="e_wo_entrp">   -208.59393682 </i>
    <i name="e_0_energy">   -208.56928292 </i>
   </energy>
  </scstep>
  <scstep>
   <time name="diag">    0.17    0.17</time>
   <time name="diis">    0.60    0.61</time>
   <time name="orth">    0.03    0.03</time>
   <time name="total">    0.90    0.91</time>
   <dipole>
    <v name="dipole">      0.00000000       0.00000000      -0.21514693 </v>
    <i name="Tr[quadrupol]">  -4518.71704008 </i>
    <i name="Echarged">      0.00000000 </i>
    <i name="Edipol_quadrupol">      0.00000000 </i>
    <i name="Eion">      0.00000000 </i>
   </dipole>
   <energy>
    <i name="e_fr_energy">   -189.89842839 </i>
    <i name="e_wo_entrp">   -189.88491266 </i>
    <i name="e_0_energy">   -189.89392314 </i>
   </energy>
  </scstep>
  <scstep>
   <time name="diag">    0.17    0.17</time>
   <time name="diis">    0.62    0.62</time>
   <time name="orth">    0.03    0.03</time>
   <time name="total">    0.93    0.93</time>
   <dipole>
    <v name="dipole">      0.00000000       0.00000000      -0.27300854 </v>
    <i name="Tr[quadrupol]">  -4518.58595384 </i>
    <i name="Echarged">      0.00000000 </i>
    <i name="Edipol_quadrupol">      0.00000000 </i>
    <i name="Eion">      0.00000000 </i>
   </dipole>
   <energy>
    <i name="e_fr_energy">   -188.06673852 </i>
    <i name="e_wo_entrp">   -187.98946678 </i>
    <i name="e_0_energy">   -188.04098127 </i>
   </energy>
  </scstep>
  <scstep>
   <time name="diag">    0.17    0.17</time>
   <time name="diis">    0.60    0.61</time>
   <time name="orth">    0.03    0.03</time>
   <time name="total">    0.91    0.91</time>
   <dipole>
    <v name="dipole">      0.00000000       0.00000000      -0.26241655 </v>
    <i name="Tr[quadrupol]">  -4519.43881146 </i>
    <i name="Echarged">      0.00000000 </i>
    <i name="Edipol_quadrupol">      0.00000000 </i>
    <i name="Eion">      0.00000000 </i>
   </dipole>
   <energy>
    <i name="e_fr_energy">   -187.35319695 </i>
    <i name="e_wo_entrp">   -187.30519472 </i>
    <i name="e_0_energy">   -187.33719621 </i>
   </energy>
  </scstep>
  <scstep>
   <time name="diag">    0.18    0.18</time>
   <time name="diis">    0.63    0.63</time>
   <time name="orth">    0.03    0.03</time>
   <time name="total">    0.94    0.94</time>
   <dipole>
    <v name="dipole">      0.00000000       0.00000000      -0.28671249 </v>
    <i name="Tr[quadrupol]">  -4519.86418664 </i>
    <i name="Echarged">      0.00000000 </i>
    <i name="Edipol_quadrupol">      0.00000000 </i>
    <i name="Eion">      0.00000000 </i>
   </dipole>
   <energy>
    <i name="e_fr_energy">   -187.64258393 </i>
    <i name="e_wo_entrp">   -187.59978400 </i>
    <i name="e_0_energy">   -187.62831729 </i>
   </energy>
  </scstep>
  <scstep>
   <time name="diag">    0.17    0.18</time>
   <time name="diis">    0.62    0.63</time>
   <time name="orth">    0.03    0.03</time>
   <time name="total">    0.93    0.94</time>
   <dipole>
    <v name="dipole">      0.00000000       0.00000000      -0.27850821 </v>
    <i name="Tr[quadrupol]">  -4520.43632541 </i>
    <i name="Echarged">      0.00000000 </i>
    <i name="Edipol_quadrupol">      0.00000000 </i>
    <i name="Eion">      0.00000000 </i>
   </dipole>
   <energy>
    <i name="e_fr_energy">   -187.13994505 </i>
    <i name="e_wo_entrp">   -187.07063697 </i>
    <i name="e_0_energy">   -187.11684236 </i>
   </energy>
  </scstep>
  <scstep>
   <time name="diag">    0.17    0.18</time>
   <time name="diis">    0.63    0.63</time>
   <time name="orth">    0.03    0.03</time>
   <time name="total">    0.93    0.94</time>
   <dipole>
    <v name="dipole">      0.00000000       0.00000000      -0.28566262 </v>
    <i name="Tr[quadrupol]">  -4520.51335735 </i>
    <i name="Echarged">      0.00000000 </i>
    <i name="Edipol_quadrupol">      0.00000000 </i>
    <i name="Eion">      0.00000000 </i>
   </dipole>
   <energy>
    <i name="e_fr_energy">   -186.89546900 </i>
    <i name="e_wo_entrp">   -186.80519697 </i>
    <i name="e_0_energy">   -186.86537832 </i>
   </energy>
  </scstep>
  <scstep>
   <time name="diag">    0.18    0.18</time>
   <time name="diis">    0.63    0.64</time>
   <time name="orth">    0.03    0.03</time>
   <time name="total">    0.94    0.95</time>
   <dipole>
    <v name="dipole">      0.00000000       0.00000000      -0.28949981 </v>
    <i name="Tr[quadrupol]">  -4520.90061347 </i>
    <i name="Echarged">      0.00000000 </i>
    <i name="Edipol_quadrupol">      0.00000000 </i>
    <i name="Eion">      0.00000000 </i>
   </dipole>
   <energy>
    <i name="e_fr_energy">   -186.86409333 </i>
    <i name="e_wo_entrp">   -186.76888203 </i>
    <i name="e_0_energy">   -186.83235623 </i>
   </energy>
  </scstep>
  <scstep>
   <time name="diag">    0.17    0.18</time>
   <time name="diis">    0.61    0.62</time>
   <time name="orth">    0.03    0.03</time>
   <time name="total">    0.92    0.92</time>
   <dipole>
    <v name="dipole">      0.00000000       0.00000000      -0.29807444 </v>
    <i name="Tr[quadrupol]">  -4521.09214734 </i>
    <i name="Echarged">      0.00000000 </i>
    <i name="Edipol_quadrupol">      0.00000000 </i>
    <i name="Eion">      0.00000000 </i>
   </dipole>
   <energy>
    <i name="e_fr_energy">   -186.83904112 </i>
    <i name="e_wo_entrp">   -186.74341471 </i>
    <i name="e_0_energy">   -186.80716565 </i>
   </energy>
  </scstep>
  <scstep>
   <time name="diag">    0.18    0.18</time>
   <time name="diis">    0.64    0.65</time>
   <time name="orth">    0.03    0.03</time>
   <time name="total">    0.95    0.96</time>
   <dipole>
    <v name="dipole">      0.00000000       0.00000000      -0.28890309 </v>
    <i name="Tr[quadrupol]">  -4521.41807882 </i>
    <i name="Echarged">      0.00000000 </i>
    <i name="Edipol_quadrupol">      0.00000000 </i>
    <i name="Eion">      0.00000000 </i>
   </dipole>
   <energy>
    <i name="e_fr_energy">   -186.84529041 </i>
    <i name="e_wo_entrp">   -186.75120115 </i>
    <i name="e_0_energy">   -186.81392732 </i>
   </energy>
  </scstep>
  <scstep>
   <time name="diag">    0.17    0.18</time>
   <time name="diis">    0.61    0.61</time>
   <time name="orth">    0.03    0.03</time>
   <time name="total">    0.92    0.92</time>
   <dipole>
    <v name="dipole">      0.00000000       0.00000000      -0.28323357 </v>
    <i name="Tr[quadrupol]">  -4521.92110403 </i>
    <i name="Echarged">      0.00000000 </i>
    <i name="Edipol_quadrupol">      0.00000000 </i>
    <i name="Eion">      0.00000000 </i>
   </dipole>
   <energy>
    <i name="e_fr_energy">   -186.83233812 </i>
    <i name="e_wo_entrp">   -186.73636060 </i>
    <i name="e_0_energy">   -186.80034561 </i>
   </energy>
  </scstep>
  <scstep>
   <time name="diag">    0.17    0.20</time>
   <time name="diis">    0.61    0.61</time>
   <time name="orth">    0.03    0.03</time>
   <time name="total">    0.91    0.94</time>
   <dipole>
    <v name="dipole">      0.00000000       0.00000000      -0.29158780 </v>
    <i name="Tr[quadrupol]">  -4522.21051053 </i>
    <i name="Echarged">      0.00000000 </i>
    <i name="Edipol_quadrupol">      0.00000000 </i>
    <i name="Eion">      0.00000000 </i>
   </dipole>
   <energy>
    <i name="e_fr_energy">   -186.82571414 </i>
    <i name="e_wo_entrp">   -186.73014235 </i>
    <i name="e_0_energy">   -186.79385688 </i>
   </energy>
  </scstep>
  <scstep>
   <time name="diag">    0.17    0.17</time>
   <time name="diis">    0.65    0.66</time>
   <time name="orth">    0.03    0.03</time>
   <time name="total">    0.96    0.97</time>
   <dipole>
    <v name="dipole">      0.00000000       0.00000000      -0.30071773 </v>
    <i name="Tr[quadrupol]">  -4522.64496118 </i>
    <i name="Echarged">      0.00000000 </i>
    <i name="Edipol_quadrupol">      0.00000000 </i>
    <i name="Eion">      0.00000000 </i>
   </dipole>
   <energy>
    <i name="e_fr_energy">   -186.82419327 </i>
    <i name="e_wo_entrp">   -186.73070894 </i>
    <i name="e_0_energy">   -186.79303183 </i>
   </energy>
  </scstep>
  <scstep>
   <time name="diag">    0.17    0.17</time>
   <time name="diis">    0.61    0.61</time>
   <time name="orth">    0.03    0.03</time>
   <time name="total">    0.91    0.92</time>
   <dipole>
    <v name="dipole">      0.00000000       0.00000000      -0.30448321 </v>
    <i name="Tr[quadrupol]">  -4522.81399938 </i>
    <i name="Echarged">      0.00000000 </i>
    <i name="Edipol_quadrupol">      0.00000000 </i>
    <i name="Eion">      0.00000000 </i>
   </dipole>
   <energy>
    <i name="e_fr_energy">   -186.82295814 </i>
    <i name="e_wo_entrp">   -186.72878252 </i>
    <i name="e_0_energy">   -186.79156627 </i>
   </energy>
  </scstep>
  <scstep>
   <time name="diag">    0.17    0.17</time>
   <time name="diis">    0.62    0.62</time>
   <time name="orth">    0.03    0.03</time>
   <time name="total">    0.92    0.92</time>
   <dipole>
    <v name="dipole">      0.00000000       0.00000000      -0.30503456 </v>
    <i name="Tr[quadrupol]">  -4523.15199302 </i>
    <i name="Echarged">      0.00000000 </i>
    <i name="Edipol_quadrupol">      0.00000000 </i>
    <i name="Eion">      0.00000000 </i>
   </dipole>
   <energy>
    <i name="e_fr_energy">   -186.82278274 </i>
    <i name="e_wo_entrp">   -186.72681010 </i>
    <i name="e_0_energy">   -186.79079186 </i>
   </energy>
  </scstep>
  <scstep>
   <time name="diag">    0.17    0.17</time>
   <time name="diis">    0.61    0.62</time>
   <time name="orth">    0.03    0.03</time>
   <time name="total">    0.92    0.92</time>
   <dipole>
    <v name="dipole">      0.00000000       0.00000000      -0.30683722 </v>
    <i name="Tr[quadrupol]">  -4523.39990332 </i>
    <i name="Echarged">      0.00000000 </i>
    <i name="Edipol_quadrupol">      0.00000000 </i>
    <i name="Eion">      0.00000000 </i>
   </dipole>
   <energy>
    <i name="e_fr_energy">   -186.82241001 </i>
    <i name="e_wo_entrp">   -186.72657701 </i>
    <i name="e_0_energy">   -186.79046568 </i>
   </energy>
  </scstep>
  <scstep>
   <time name="diag">    0.17    0.17</time>
   <time name="diis">    0.54    0.54</time>
   <time name="orth">    0.03    0.03</time>
   <time name="total">    0.84    0.85</time>
   <dipole>
    <v name="dipole">      0.00000000       0.00000000      -0.31083816 </v>
    <i name="Tr[quadrupol]">  -4523.55388997 </i>
    <i name="Echarged">      0.00000000 </i>
    <i name="Edipol_quadrupol">      0.00000000 </i>
    <i name="Eion">      0.00000000 </i>
   </dipole>
   <energy>
    <i name="e_fr_energy">   -186.82174307 </i>
    <i name="e_wo_entrp">   -186.72668970 </i>
    <i name="e_0_energy">   -186.79005861 </i>
   </energy>
  </scstep>
  <scstep>
   <time name="diag">    0.17    0.17</time>
   <time name="diis">    0.45    0.45</time>
   <time name="orth">    0.02    0.02</time>
   <time name="total">    0.75    0.75</time>
   <dipole>
    <v name="dipole">      0.00000000       0.00000000      -0.31392860 </v>
    <i name="Tr[quadrupol]">  -4523.67045753 </i>
    <i name="Echarged">      0.00000000 </i>
    <i name="Edipol_quadrupol">      0.00000000 </i>
    <i name="Eion">      0.00000000 </i>
   </dipole>
   <energy>
    <i name="e_fr_energy">   -186.82193514 </i>
    <i name="e_wo_entrp">   -186.72729391 </i>
    <i name="e_0_energy">   -186.79038807 </i>
   </energy>
  </scstep>
  <scstep>
   <time name="diag">    0.17    0.17</time>
   <time name="diis">    0.43    0.44</time>
   <time name="orth">    0.03    0.03</time>
   <time name="total">    0.73    0.74</time>
   <dipole>
    <v name="dipole">      0.00000000       0.00000000      -0.31306889 </v>
    <i name="Tr[quadrupol]">  -4523.87147303 </i>
    <i name="Echarged">      0.00000000 </i>
    <i name="Edipol_quadrupol">      0.00000000 </i>
    <i name="Eion">      0.00000000 </i>
   </dipole>
   <energy>
    <i name="e_fr_energy">   -186.82225977 </i>
    <i name="e_wo_entrp">   -186.72739670 </i>
    <i name="e_0_energy">   -186.79063875 </i>
   </energy>
  </scstep>
  <scstep>
   <time name="diag">    0.17    0.17</time>
   <time name="diis">    0.46    0.47</time>
   <time name="orth">    0.03    0.03</time>
   <time name="total">    0.76    0.77</time>
   <dipole>
    <v name="dipole">      0.00000000       0.00000000      -0.29231054 </v>
    <i name="Tr[quadrupol]">  -4523.79447254 </i>
    <i name="Echarged">      0.00000000 </i>
    <i name="Edipol_quadrupol">      0.00000000 </i>
    <i name="Eion">      0.00000000 </i>
   </dipole>
   <energy>
    <i name="e_fr_energy">   -186.82376030 </i>
    <i name="e_wo_entrp">   -186.72774034 </i>
    <i name="e_0_energy">   -186.79175365 </i>
   </energy>
  </scstep>
  <scstep>
   <time name="diag">    0.17    0.17</time>
   <time name="diis">    0.38    0.39</time>
   <time name="orth">    0.02    0.03</time>
   <time name="total">    0.68    0.69</time>
   <dipole>
    <v name="dipole">      0.00000000       0.00000000      -0.28422312 </v>
    <i name="Tr[quadrupol]">  -4523.73438308 </i>
    <i name="Echarged">      0.00000000 </i>
    <i name="Edipol_quadrupol">      0.00000000 </i>
    <i name="Eion">      0.00000000 </i>
   </dipole>
   <energy>
    <i name="e_fr_energy">   -186.82363573 </i>
    <i name="e_wo_entrp">   -186.72745092 </i>
    <i name="e_0_energy">   -186.79157412 </i>
   </energy>
  </scstep>
  <scstep>
   <time name="diag">    0.17    0.17</time>
   <time name="diis">    0.38    0.38</time>
   <time name="orth">    0.03    0.03</time>
   <time name="total">    0.68    0.69</time>
   <dipole>
    <v name="dipole">      0.00000000       0.00000000      -0.28884697 </v>
    <i name="Tr[quadrupol]">  -4523.75136342 </i>
    <i name="Echarged">      0.00000000 </i>
    <i name="Edipol_quadrupol">      0.00000000 </i>
    <i name="Eion">      0.00000000 </i>
   </dipole>
   <energy>
    <i name="e_fr_energy">   -186.82263515 </i>
    <i name="e_wo_entrp">   -186.72725137 </i>
    <i name="e_0_energy">   -186.79084056 </i>
   </energy>
  </scstep>
  <scstep>
   <time name="diag">    0.17    0.17</time>
   <time name="diis">    0.37    0.37</time>
   <time name="orth">    0.03    0.03</time>
   <time name="total">    0.67    0.67</time>
   <dipole>
    <v name="dipole">      0.00000000       0.00000000      -0.29067833 </v>
    <i name="Tr[quadrupol]">  -4523.74841535 </i>
    <i name="Echarged">      0.00000000 </i>
    <i name="Edipol_quadrupol">      0.00000000 </i>
    <i name="Eion">      0.00000000 </i>
   </dipole>
   <energy>
    <i name="e_fr_energy">   -186.82289027 </i>
    <i name="e_wo_entrp">   -186.72791151 </i>
    <i name="e_0_energy">   -186.79123068 </i>
   </energy>
  </scstep>
  <scstep>
   <time name="diag">    0.17    0.17</time>
   <time name="diis">    0.49    0.50</time>
   <time name="orth">    0.02    0.02</time>
   <time name="total">    0.79    0.80</time>
   <dipole>
    <v name="dipole">      0.00000000       0.00000000      -0.30607497 </v>
    <i name="Tr[quadrupol]">  -4523.85097218 </i>
    <i name="Echarged">      0.00000000 </i>
    <i name="Edipol_quadrupol">      0.00000000 </i>
    <i name="Eion">      0.00000000 </i>
   </dipole>
   <energy>
    <i name="e_fr_energy">   -186.82437053 </i>
    <i name="e_wo_entrp">   -186.73120719 </i>
    <i name="e_0_energy">   -186.79331608 </i>
   </energy>
  </scstep>
  <scstep>
   <time name="diag">    0.17    0.17</time>
   <time name="diis">    0.37    0.37</time>
   <time name="orth">    0.02    0.02</time>
   <time name="total">    0.67    0.67</time>
   <dipole>
    <v name="dipole">      0.00000000       0.00000000      -0.30409402 </v>
    <i name="Tr[quadrupol]">  -4523.83982153 </i>
    <i name="Echarged">      0.00000000 </i>
    <i name="Edipol_quadrupol">      0.00000000 </i>
    <i name="Eion">      0.00000000 </i>
   </dipole>
   <energy>
    <i name="e_fr_energy">   -186.82367310 </i>
    <i name="e_wo_entrp">   -186.72996763 </i>
    <i name="e_0_energy">   -186.79243794 </i>
   </energy>
  </scstep>
  <scstep>
   <time name="diag">    0.17    0.17</time>
   <time name="diis">    0.36    0.36</time>
   <time name="orth">    0.02    0.02</time>
   <time name="total">    0.66    0.66</time>
   <dipole>
    <v name="dipole">      0.00000000       0.00000000      -0.30418711 </v>
    <i name="Tr[quadrupol]">  -4523.87970344 </i>
    <i name="Echarged">      0.00000000 </i>
    <i name="Edipol_quadrupol">      0.00000000 </i>
    <i name="Eion">      0.00000000 </i>
   </dipole>
   <energy>
    <i name="e_fr_energy">   -186.82341557 </i>
    <i name="e_wo_entrp">   -186.72928426 </i>
    <i name="e_0_energy">   -186.79203847 </i>
   </energy>
  </scstep>
  <scstep>
   <time name="diag">    0.17    0.17</time>
   <time name="diis">    0.35    0.35</time>
   <time name="orth">    0.02    0.02</time>
   <time name="total">    0.59    0.60</time>
   <dipole>
    <v name="dipole">      0.00000000       0.00000000      -0.30619194 </v>
    <i name="Tr[quadrupol]">  -4523.91294378 </i>
    <i name="Echarged">      0.00000000 </i>
    <i name="Edipol_quadrupol">      0.00000000 </i>
    <i name="Eion">      0.00000000 </i>
   </dipole>
   <energy>
    <i name="alphaZ">    611.06922095 </i>
    <i name="ewald">  75148.50398218 </i>
    <i name="hartreedc">-106009.80549456 </i>
    <i name="XCdc">  -1053.06875191 </i>
    <i name="pawpsdc">  34459.60926204 </i>
    <i name="pawaedc"> -32289.18059703 </i>
    <i name="eentropy">     -0.09422607 </i>
    <i name="bandstr">   -506.41270442 </i>
    <i name="atom">  29452.55580095 </i>
    <i name="e_fr_energy">   -186.82350787 </i>
    <i name="e_wo_entrp">   -186.72928180 </i>
    <i name="e_0_energy">   -186.79209918 </i>
   </energy>
  </scstep>
  <structure>
   <crystal>
    <varray name="basis" >
     <v>       8.35800215       0.00000000       0.00000000 </v>
     <v>       0.00000000       8.35800215       0.00000000 </v>
     <v>       0.00000000       0.00000000      19.91000000 </v>
    </varray>
    <i name="volume">   1390.83694200 </i>
    <varray name="rec_basis" >
     <v>       0.11964582       0.00000000       0.00000000 </v>
     <v>       0.00000000       0.11964582       0.00000000 </v>
     <v>       0.00000000       0.00000000       0.05022602 </v>
    </varray>
   </crystal>
   <varray name="positions" >
    <v>       0.16666667       0.16666667       0.00000000 </v>
    <v>       0.50000000       0.16666667       0.00000000 </v>
    <v>       0.83333333       0.16666667       0.00000000 </v>
    <v>       0.16666667       0.50000000       0.00000000 </v>
    <v>       0.50000000       0.50000000       0.00000000 </v>
    <v>       0.83333333       0.50000000       0.00000000 </v>
    <v>       0.16666667       0.83333333       0.00000000 </v>
    <v>       0.50000000       0.83333333       0.00000000 </v>
    <v>       0.83333333       0.83333333       0.00000000 </v>
    <v>       0.00000000       0.00000000       0.09894525 </v>
    <v>       0.33333333       0.00000000       0.09894525 </v>
    <v>       0.66666667       0.00000000       0.09894525 </v>
    <v>       0.00000000       0.33333333       0.09894525 </v>
    <v>       0.33333333       0.33333333       0.09894525 </v>
    <v>       0.66666667       0.33333333       0.09894525 </v>
    <v>       0.00000000       0.66666667       0.09894525 </v>
    <v>       0.33333333       0.66666667       0.09894525 </v>
    <v>       0.66666667       0.66666667       0.09894525 </v>
    <v>       0.16791796       0.16776752       0.19783517 </v>
    <v>       0.49768366       0.16738138       0.19751987 </v>
    <v>       0.83291904       0.16570856       0.19630799 </v>
    <v>       0.16733475       0.49775003       0.19750055 </v>
    <v>       0.49797031       0.49783188       0.19729006 </v>
    <v>       0.83282881       0.50043795       0.19627074 </v>
    <v>       0.16567903       0.83289428       0.19630674 </v>
    <v>       0.50039948       0.83280535       0.19626484 </v>
    <v>       0.83305667       0.83309130       0.19606477 </v>
    <v>       0.99840936       0.99845428       0.29484484 </v>
    <v>       0.33300461       0.99656483       0.29408601 </v>
    <v>       0.66687001       0.99860071       0.29480327 </v>
    <v>       0.99710769       0.33299244       0.29404154 </v>
    <v>       0.33212060       0.33101481       0.30321050 </v>
    <v>       0.66682191       0.33272960       0.29371537 </v>
    <v>       0.99857774       0.66689389       0.29479029 </v>
    <v>       0.33272691       0.66637751       0.29370479 </v>
    <v>       0.66673890       0.66677792       0.29465678 </v>
    <v>       0.48994049       0.33814957       0.43176021 </v>
    <v>       0.32372911       0.50209169       0.42810715 </v>
    <v>       0.32995375       0.34074956       0.41889927 </v>
   </varray>
  </structure>
  <varray name="forces" >
   <v>       0.01187976       0.01226696       0.12470573 </v>
   <v>      -0.00878612       0.01085573       0.12357701 </v>
   <v>       0.00043625       0.00826683       0.10876050 </v>
   <v>       0.00875506      -0.00717644       0.12256256 </v>
   <v>      -0.00555764      -0.00548474       0.12381478 </v>
   <v>      -0.00065170      -0.00189130       0.10227067 </v>
   <v>       0.00781253      -0.00041701       0.10774694 </v>
   <v>      -0.00200047      -0.00142587       0.10403102 </v>
   <v>      -0.00248605      -0.00581694       0.04029125 </v>
   <v>       0.02231527       0.02343515      -0.13756427 </v>
   <v>      -0.01359670       0.06406614      -0.05004156 </v>
   <v>      -0.02308572       0.01819421      -0.14524488 </v>
   <v>       0.06569859      -0.01379232      -0.05066571 </v>
   <v>      -0.01876587      -0.01746055      -0.20995037 </v>
   <v>      -0.08201722      -0.01542206      -0.06014504 </v>
   <v>       0.01641218      -0.02183978      -0.14471721 </v>
   <v>      -0.01504282      -0.08434075      -0.06085423 </v>
   <v>      -0.02451078      -0.02364966      -0.14216651 </v>
   <v>      -0.00609794      -0.00560938      -0.00289605 </v>
   <v>       0.01232580      -0.00380209       0.01472001 </v>
   <v>       0.00487815       0.01552175       0.00180143 </v>
   <v>      -0.00346009       0.01118692       0.00763302 </v>
   <v>       0.01307494       0.01293051       0.02124496 </v>
   <v>       0.00472119      -0.01506993       0.00240780 </v>
   <v>       0.01575127       0.00366426       0.00422666 </v>
   <v>      -0.01438886       0.00387434       0.00238361 </v>
   <v>       0.00062622       0.00139968       0.00002527 </v>
   <v>       0.00638758       0.00501699      -0.01379613 </v>
   <v>      -0.00031475       0.00508764       0.00685007 </v>
   <v>       0.00296667       0.00291457      -0.01531107 </v>
   <v>       0.00381517       0.00032700       0.00563357 </v>
   <v>      -0.00744371      -0.00601357      -0.01502813 </v>
   <v>      -0.00026707       0.00249137       0.01568131 </v>
   <v>       0.00288186       0.00263159      -0.01626572 </v>
   <v>       0.00272249       0.00210600       0.01388965 </v>
   <v>       0.00343168       0.00185170      -0.01522185 </v>
   <v>      -0.00892305       0.00515812       0.01501127 </v>
   <v>       0.00194436       0.00124722       0.02209932 </v>
   <v>       0.02855956       0.01471774      -0.01149969 </v>
  </varray>
  <varray name="stress" >
   <v>     -24.44975012      -0.00102340       0.24944411 </v>
   <v>      -0.00102345     -24.41817556       0.25635351 </v>
   <v>       0.24944412       0.25635339      -4.38208145 </v>
  </varray>
  <energy>
   <i name="e_fr_energy">   -186.82350787 </i>
   <i name="e_wo_entrp">   -186.72928180 </i>
   <i name="e_0_energy">   -186.79209918 </i>
  </energy>
  <time name="totalsc">   30.83   31.06</time>
  <eigenvalues>
   <array>
    <dimension dim="1">band</dimension>
    <dimension dim="2">kpoint</dimension>
    <dimension dim="3">spin</dimension>
    <field>eigene</field>
    <field>occ</field>
    <set>
     <set comment="spin 1">
      <set comment="kpoint 1">
       <r>  -14.3015    1.0000 </r>
       <r>   -6.4319    1.0000 </r>
       <r>   -5.3042    1.0000 </r>
       <r>   -4.9983    1.0000 </r>
       <r>   -4.0549    1.0000 </r>
       <r>   -4.0506    1.0000 </r>
       <r>   -3.8066    1.0000 </r>
       <r>   -3.6557    1.0000 </r>
       <r>   -3.6006    1.0000 </r>
       <r>   -3.5890    1.0000 </r>
       <r>   -3.5863    1.0000 </r>
       <r>   -3.5708    1.0000 </r>
       <r>   -3.5671    1.0000 </r>
       <r>   -3.5016    1.0000 </r>
       <r>   -3.4709    1.0000 </r>
       <r>   -3.4404    1.0000 </r>
       <r>   -3.4148    1.0000 </r>
       <r>   -3.4035    1.0000 </r>
       <r>   -3.3900    1.0000 </r>
       <r>   -3.3433    1.0000 </r>
       <r>   -3.2710    1.0000 </r>
       <r>   -3.1820    1.0000 </r>
       <r>   -3.1772    1.0000 </r>
       <r>   -3.1747    1.0000 </r>
       <r>   -3.1528    1.0000 </r>
       <r>   -3.0366    1.0000 </r>
       <r>   -3.0314    1.0000 </r>
       <r>   -3.0264    1.0000 </r>
       <r>   -2.9886    1.0000 </r>
       <r>   -2.9866    1.0000 </r>
       <r>   -2.9593    1.0000 </r>
       <r>   -2.9521    1.0000 </r>
       <r>   -2.8530    1.0000 </r>
       <r>   -2.8500    1.0000 </r>
       <r>   -2.8474    1.0000 </r>
       <r>   -2.7849    1.0000 </r>
       <r>   -2.7088    1.0000 </r>
       <r>   -2.6991    1.0000 </r>
       <r>   -2.6876    1.0000 </r>
       <r>   -2.6835    1.0000 </r>
       <r>   -2.6642    1.0000 </r>
       <r>   -2.6635    1.0000 </r>
       <r>   -2.6485    1.0000 </r>
       <r>   -2.6406    1.0000 </r>
       <r>   -2.6258    1.0000 </r>
       <r>   -2.4967    1.0000 </r>
       <r>   -2.4205    1.0000 </r>
       <r>   -2.4080    1.0000 </r>
       <r>   -2.3879    1.0000 </r>
       <r>   -2.3608    1.0000 </r>
       <r>   -2.3366    1.0000 </r>
       <r>   -2.2693    1.0000 </r>
       <r>   -2.2594    1.0000 </r>
       <r>   -2.2393    1.0000 </r>
       <r>   -2.2189    1.0000 </r>
       <r>   -2.2018    1.0000 </r>
       <r>   -2.1982    1.0000 </r>
       <r>   -2.1601    1.0000 </r>
       <r>   -2.0827    1.0000 </r>
       <r>   -2.0583    1.0000 </r>
       <r>   -2.0083    1.0000 </r>
       <r>   -2.0024    1.0000 </r>
       <r>   -1.9028    1.0000 </r>
       <r>   -1.8682    1.0000 </r>
       <r>   -1.8679    1.0000 </r>
       <r>   -1.8511    1.0000 </r>
       <r>   -1.8398    1.0000 </r>
       <r>   -1.7994    1.0000 </r>
       <r>   -1.7926    1.0000 </r>
       <r>   -1.7314    1.0000 </r>
       <r>   -1.7127    1.0000 </r>
       <r>   -1.6977    1.0000 </r>
       <r>   -1.6381    1.0000 </r>
       <r>   -1.6311    1.0000 </r>
       <r>   -1.5989    1.0000 </r>
       <r>   -1.5288    1.0000 </r>
       <r>   -1.5106    1.0000 </r>
       <r>   -1.4988    1.0000 </r>
       <r>   -1.4510    1.0000 </r>
       <r>   -1.4415    1.0000 </r>
       <r>   -1.4375    1.0000 </r>
       <r>   -1.4159    1.0000 </r>
       <r>   -1.4129    1.0000 </r>
       <r>   -1.4040    1.0000 </r>
       <r>   -1.3919    1.0000 </r>
       <r>   -1.3769    1.0000 </r>
       <r>   -1.3399    1.0000 </r>
       <r>   -1.3268    1.0000 </r>
       <r>   -1.3198    1.0000 </r>
       <r>   -1.3054    1.0000 </r>
       <r>   -1.1976    1.0000 </r>
       <r>   -1.1933    1.0000 </r>
       <r>   -1.1824    1.0000 </r>
       <r>   -1.1677    1.0000 </r>
       <r>   -1.1645    1.0000 </r>
       <r>   -1.1402    1.0000 </r>
       <r>   -1.1292    1.0000 </r>
       <r>   -1.1165    1.0000 </r>
       <r>   -1.0472    1.0000 </r>
       <r>   -1.0377    1.0000 </r>
       <r>   -1.0306    1.0000 </r>
       <r>   -0.9908    1.0000 </r>
       <r>   -0.9784    1.0000 </r>
       <r>   -0.9358    1.0000 </r>
       <r>   -0.9039    1.0000 </r>
       <r>   -0.8538    1.0000 </r>
       <r>   -0.8376    1.0000 </r>
       <r>   -0.7913    1.0000 </r>
       <r>   -0.7901    1.0000 </r>
       <r>   -0.7299    1.0000 </r>
       <r>   -0.6570    1.0000 </r>
       <r>   -0.6250    1.0000 </r>
       <r>   -0.6204    1.0000 </r>
       <r>   -0.5924    1.0000 </r>
       <r>   -0.5870    1.0000 </r>
       <r>   -0.5720    1.0000 </r>
       <r>   -0.5443    1.0000 </r>
       <r>   -0.5312    1.0000 </r>
       <r>   -0.5219    1.0000 </r>
       <r>   -0.5153    1.0000 </r>
       <r>   -0.5124    1.0000 </r>
       <r>   -0.5038    1.0000 </r>
       <r>   -0.4817    1.0000 </r>
       <r>   -0.4744    1.0000 </r>
       <r>   -0.4263    1.0000 </r>
       <r>   -0.4079    1.0000 </r>
       <r>   -0.3791    1.0000 </r>
       <r>   -0.3663    1.0000 </r>
       <r>   -0.3381    1.0000 </r>
       <r>   -0.3278    1.0000 </r>
       <r>   -0.2364    1.0000 </r>
       <r>   -0.2292    1.0000 </r>
       <r>   -0.1986    1.0000 </r>
       <r>   -0.1853    1.0000 </r>
       <r>   -0.1653    1.0000 </r>
       <r>   -0.1586    1.0000 </r>
       <r>   -0.1561    1.0000 </r>
       <r>   -0.1154    1.0000 </r>
       <r>   -0.0949    1.0000 </r>
       <r>   -0.0706    1.0000 </r>
       <r>    0.0001    1.0000 </r>
       <r>    0.0285    1.0000 </r>
       <r>    0.0429    1.0000 </r>
       <r>    0.0677    1.0000 </r>
       <r>    0.0723    1.0000 </r>
       <r>    0.1120    1.0000 </r>
       <r>    0.1238    1.0000 </r>
       <r>    0.1247    1.0000 </r>
       <r>    0.1410    1.0000 </r>
       <r>    0.1455    1.0000 </r>
       <r>    0.2232    1.0000 </r>
       <r>    0.2831    1.0000 </r>
       <r>    0.3145    1.0000 </r>
       <r>    0.3465    1.0000 </r>
       <r>    0.3727    1.0000 </r>
       <r>    0.4036    1.0000 </r>
       <r>    0.4196    1.0000 </r>
       <r>    0.4254    1.0000 </r>
       <r>    0.4523    1.0000 </r>
       <r>    0.4612    1.0000 </r>
       <r>    0.4768    1.0000 </r>
       <r>    0.4993    1.0000 </r>
       <r>    0.5070    1.0000 </r>
       <r>    0.5241    1.0000 </r>
       <r>    0.5311    1.0000 </r>
       <r>    0.5869    1.0000 </r>
       <r>    0.6354    1.0000 </r>
       <r>    0.6384    1.0001 </r>
       <r>    0.6659    1.0003 </r>
       <r>    0.6743    1.0004 </r>
       <r>    0.6954    1.0011 </r>
       <r>    0.7060    1.0018 </r>
       <r>    0.7166    1.0027 </r>
       <r>    0.7182    1.0029 </r>
       <r>    0.7375    1.0060 </r>
       <r>    0.7456    1.0078 </r>
       <r>    0.7672    1.0148 </r>
       <r>    0.8098    1.0330 </r>
       <r>    0.8436    1.0277 </r>
       <r>    0.8493    1.0218 </r>
       <r>    0.8874    0.9150 </r>
       <r>    0.9166    0.7398 </r>
       <r>    0.9308    0.6296 </r>
       <r>    0.9396    0.5570 </r>
       <r>    0.9500    0.4684 </r>
       <r>    0.9750    0.2682 </r>
       <r>    0.9833    0.2092 </r>
       <r>    0.9944    0.1407 </r>
       <r>    1.0538   -0.0313 </r>
       <r>    1.1273   -0.0141 </r>
       <r>    1.2418   -0.0001 </r>
       <r>    1.2426   -0.0001 </r>
       <r>    1.7363   -0.0000 </r>
       <r>    1.8034   -0.0000 </r>
       <r>    1.8135   -0.0000 </r>
       <r>    1.9725   -0.0000 </r>
       <r>    1.9972   -0.0000 </r>
       <r>    2.0805   -0.0000 </r>
       <r>    2.2766   -0.0000 </r>
       <r>    2.4039   -0.0000 </r>
       <r>    2.4174   -0.0000 </r>
       <r>    2.8522   -0.0000 </r>
       <r>    3.3929    0.0000 </r>
       <r>    3.4950    0.0000 </r>
       <r>    3.6108    0.0000 </r>
       <r>    3.6850    0.0000 </r>
       <r>    3.7652    0.0000 </r>
       <r>    3.8812    0.0000 </r>
       <r>    4.0621    0.0000 </r>
       <r>    4.1984    0.0000 </r>
       <r>    4.4381    0.0000 </r>
       <r>    4.4696    0.0000 </r>
       <r>    5.0331    0.0000 </r>
       <r>    5.0461    0.0000 </r>
       <r>    5.4257    0.0000 </r>
       <r>    5.4481    0.0000 </r>
       <r>    5.4707    0.0000 </r>
       <r>    5.7803    0.0000 </r>
       <r>    5.8996    0.0000 </r>
       <r>    6.1901    0.0000 </r>
      </set>
      <set comment="kpoint 2">
       <r>  -14.3015    1.0000 </r>
       <r>   -6.4319    1.0000 </r>
       <r>   -5.3033    1.0000 </r>
       <r>   -4.9991    1.0000 </r>
       <r>   -4.0558    1.0000 </r>
       <r>   -4.0491    1.0000 </r>
       <r>   -3.8063    1.0000 </r>
       <r>   -3.6551    1.0000 </r>
       <r>   -3.5989    1.0000 </r>
       <r>   -3.5966    1.0000 </r>
       <r>   -3.5800    1.0000 </r>
       <r>   -3.5709    1.0000 </r>
       <r>   -3.5681    1.0000 </r>
       <r>   -3.5014    1.0000 </r>
       <r>   -3.4708    1.0000 </r>
       <r>   -3.4426    1.0000 </r>
       <r>   -3.4148    1.0000 </r>
       <r>   -3.4013    1.0000 </r>
       <r>   -3.3909    1.0000 </r>
       <r>   -3.3450    1.0000 </r>
       <r>   -3.2668    1.0000 </r>
       <r>   -3.1822    1.0000 </r>
       <r>   -3.1798    1.0000 </r>
       <r>   -3.1771    1.0000 </r>
       <r>   -3.1558    1.0000 </r>
       <r>   -3.0373    1.0000 </r>
       <r>   -3.0307    1.0000 </r>
       <r>   -3.0244    1.0000 </r>
       <r>   -2.9898    1.0000 </r>
       <r>   -2.9825    1.0000 </r>
       <r>   -2.9599    1.0000 </r>
       <r>   -2.9530    1.0000 </r>
       <r>   -2.8538    1.0000 </r>
       <r>   -2.8506    1.0000 </r>
       <r>   -2.8453    1.0000 </r>
       <r>   -2.7860    1.0000 </r>
       <r>   -2.7084    1.0000 </r>
       <r>   -2.6991    1.0000 </r>
       <r>   -2.6866    1.0000 </r>
       <r>   -2.6839    1.0000 </r>
       <r>   -2.6645    1.0000 </r>
       <r>   -2.6572    1.0000 </r>
       <r>   -2.6535    1.0000 </r>
       <r>   -2.6403    1.0000 </r>
       <r>   -2.6243    1.0000 </r>
       <r>   -2.4968    1.0000 </r>
       <r>   -2.4240    1.0000 </r>
       <r>   -2.4058    1.0000 </r>
       <r>   -2.3870    1.0000 </r>
       <r>   -2.3720    1.0000 </r>
       <r>   -2.3263    1.0000 </r>
       <r>   -2.2682    1.0000 </r>
       <r>   -2.2569    1.0000 </r>
       <r>   -2.2375    1.0000 </r>
       <r>   -2.2188    1.0000 </r>
       <r>   -2.2061    1.0000 </r>
       <r>   -2.1971    1.0000 </r>
       <r>   -2.1602    1.0000 </r>
       <r>   -2.0816    1.0000 </r>
       <r>   -2.0591    1.0000 </r>
       <r>   -2.0095    1.0000 </r>
       <r>   -1.9988    1.0000 </r>
       <r>   -1.9016    1.0000 </r>
       <r>   -1.8710    1.0000 </r>
       <r>   -1.8668    1.0000 </r>
       <r>   -1.8521    1.0000 </r>
       <r>   -1.8408    1.0000 </r>
       <r>   -1.7986    1.0000 </r>
       <r>   -1.7920    1.0000 </r>
       <r>   -1.7311    1.0000 </r>
       <r>   -1.7123    1.0000 </r>
       <r>   -1.6963    1.0000 </r>
       <r>   -1.6369    1.0000 </r>
       <r>   -1.6360    1.0000 </r>
       <r>   -1.5994    1.0000 </r>
       <r>   -1.5281    1.0000 </r>
       <r>   -1.5116    1.0000 </r>
       <r>   -1.4963    1.0000 </r>
       <r>   -1.4511    1.0000 </r>
       <r>   -1.4417    1.0000 </r>
       <r>   -1.4311    1.0000 </r>
       <r>   -1.4237    1.0000 </r>
       <r>   -1.4133    1.0000 </r>
       <r>   -1.4020    1.0000 </r>
       <r>   -1.3995    1.0000 </r>
       <r>   -1.3846    1.0000 </r>
       <r>   -1.3391    1.0000 </r>
       <r>   -1.3278    1.0000 </r>
       <r>   -1.3181    1.0000 </r>
       <r>   -1.3066    1.0000 </r>
       <r>   -1.1941    1.0000 </r>
       <r>   -1.1928    1.0000 </r>
       <r>   -1.1786    1.0000 </r>
       <r>   -1.1745    1.0000 </r>
       <r>   -1.1630    1.0000 </r>
       <r>   -1.1409    1.0000 </r>
       <r>   -1.1323    1.0000 </r>
       <r>   -1.1040    1.0000 </r>
       <r>   -1.0648    1.0000 </r>
       <r>   -1.0412    1.0000 </r>
       <r>   -1.0304    1.0000 </r>
       <r>   -0.9940    1.0000 </r>
       <r>   -0.9647    1.0000 </r>
       <r>   -0.9190    1.0000 </r>
       <r>   -0.9121    1.0000 </r>
       <r>   -0.8379    1.0000 </r>
       <r>   -0.8310    1.0000 </r>
       <r>   -0.7915    1.0000 </r>
       <r>   -0.7904    1.0000 </r>
       <r>   -0.7402    1.0000 </r>
       <r>   -0.6571    1.0000 </r>
       <r>   -0.6267    1.0000 </r>
       <r>   -0.6169    1.0000 </r>
       <r>   -0.5960    1.0000 </r>
       <r>   -0.5858    1.0000 </r>
       <r>   -0.5774    1.0000 </r>
       <r>   -0.5440    1.0000 </r>
       <r>   -0.5313    1.0000 </r>
       <r>   -0.5223    1.0000 </r>
       <r>   -0.5160    1.0000 </r>
       <r>   -0.5096    1.0000 </r>
       <r>   -0.5036    1.0000 </r>
       <r>   -0.4820    1.0000 </r>
       <r>   -0.4733    1.0000 </r>
       <r>   -0.4303    1.0000 </r>
       <r>   -0.4070    1.0000 </r>
       <r>   -0.3789    1.0000 </r>
       <r>   -0.3654    1.0000 </r>
       <r>   -0.3420    1.0000 </r>
       <r>   -0.3280    1.0000 </r>
       <r>   -0.2316    1.0000 </r>
       <r>   -0.2250    1.0000 </r>
       <r>   -0.1968    1.0000 </r>
       <r>   -0.1896    1.0000 </r>
       <r>   -0.1715    1.0000 </r>
       <r>   -0.1577    1.0000 </r>
       <r>   -0.1566    1.0000 </r>
       <r>   -0.1171    1.0000 </r>
       <r>   -0.0989    1.0000 </r>
       <r>   -0.0714    1.0000 </r>
       <r>    0.0134    1.0000 </r>
       <r>    0.0264    1.0000 </r>
       <r>    0.0372    1.0000 </r>
       <r>    0.0639    1.0000 </r>
       <r>    0.0755    1.0000 </r>
       <r>    0.1086    1.0000 </r>
       <r>    0.1237    1.0000 </r>
       <r>    0.1259    1.0000 </r>
       <r>    0.1410    1.0000 </r>
       <r>    0.1443    1.0000 </r>
       <r>    0.2284    1.0000 </r>
       <r>    0.2822    1.0000 </r>
       <r>    0.3176    1.0000 </r>
       <r>    0.3464    1.0000 </r>
       <r>    0.3735    1.0000 </r>
       <r>    0.3979    1.0000 </r>
       <r>    0.4196    1.0000 </r>
       <r>    0.4255    1.0000 </r>
       <r>    0.4545    1.0000 </r>
       <r>    0.4592    1.0000 </r>
       <r>    0.4781    1.0000 </r>
       <r>    0.4960    1.0000 </r>
       <r>    0.5053    1.0000 </r>
       <r>    0.5239    1.0000 </r>
       <r>    0.5317    1.0000 </r>
       <r>    0.5876    1.0000 </r>
       <r>    0.6373    1.0001 </r>
       <r>    0.6400    1.0001 </r>
       <r>    0.6632    1.0002 </r>
       <r>    0.6765    1.0005 </r>
       <r>    0.6960    1.0011 </r>
       <r>    0.7063    1.0018 </r>
       <r>    0.7156    1.0026 </r>
       <r>    0.7199    1.0031 </r>
       <r>    0.7374    1.0059 </r>
       <r>    0.7463    1.0080 </r>
       <r>    0.7673    1.0148 </r>
       <r>    0.8088    1.0326 </r>
       <r>    0.8425    1.0286 </r>
       <r>    0.8504    1.0204 </r>
       <r>    0.8899    0.9032 </r>
       <r>    0.9165    0.7406 </r>
       <r>    0.9300    0.6363 </r>
       <r>    0.9401    0.5527 </r>
       <r>    0.9501    0.4682 </r>
       <r>    0.9751    0.2675 </r>
       <r>    0.9827    0.2138 </r>
       <r>    0.9944    0.1406 </r>
       <r>    1.0540   -0.0314 </r>
       <r>    1.1275   -0.0140 </r>
       <r>    1.2404   -0.0001 </r>
       <r>    1.2431   -0.0001 </r>
       <r>    1.7326   -0.0000 </r>
       <r>    1.8053   -0.0000 </r>
       <r>    1.8096   -0.0000 </r>
       <r>    1.9764   -0.0000 </r>
       <r>    1.9858   -0.0000 </r>
       <r>    2.0901   -0.0000 </r>
       <r>    2.2703   -0.0000 </r>
       <r>    2.4142   -0.0000 </r>
       <r>    2.4174   -0.0000 </r>
       <r>    2.8528   -0.0000 </r>
       <r>    3.4072    0.0000 </r>
       <r>    3.4846    0.0000 </r>
       <r>    3.6100    0.0000 </r>
       <r>    3.7050    0.0000 </r>
       <r>    3.7557    0.0000 </r>
       <r>    3.8553    0.0000 </r>
       <r>    4.0710    0.0000 </r>
       <r>    4.1934    0.0000 </r>
       <r>    4.4084    0.0000 </r>
       <r>    4.5010    0.0000 </r>
       <r>    5.0283    0.0000 </r>
       <r>    5.0426    0.0000 </r>
       <r>    5.4208    0.0000 </r>
       <r>    5.4620    0.0000 </r>
       <r>    5.5191    0.0000 </r>
       <r>    5.7378    0.0000 </r>
       <r>    5.8221    0.0000 </r>
       <r>    6.2486    0.0000 </r>
      </set>
     </set>
    </set>
   </array>
  </eigenvalues>
  <separator name="orbital magnetization" >
   <v name="MAGDIPOLOUT">      0.00000000      0.00000000      0.00000000</v>
  </separator>
  <dos>
   <i name="efermi">      0.94630933 </i>
   <total>
    <array>
     <dimension dim="1">gridpoints</dimension>
     <dimension dim="2">spin</dimension>
     <field>energy</field>
     <field>total</field>
     <field>integrated</field>
     <set>
      <set comment="spin 1">
       <r>   -15.3290     0.0000     0.0000 </r>
       <r>   -15.2536     0.0000     0.0000 </r>
       <r>   -15.1783     0.0000     0.0000 </r>
       <r>   -15.1029    -0.0000    -0.0000 </r>
       <r>   -15.0276    -0.0000    -0.0000 </r>
       <r>   -14.9522    -0.0000    -0.0000 </r>
       <r>   -14.8769    -0.0000    -0.0000 </r>
       <r>   -14.8015    -0.0000    -0.0000 </r>
       <r>   -14.7262    -0.0000    -0.0000 </r>
       <r>   -14.6508    -0.0001    -0.0000 </r>
       <r>   -14.5755    -0.0097    -0.0007 </r>
       <r>   -14.5001    -0.2117    -0.0167 </r>
       <r>   -14.4248    -0.7193    -0.0709 </r>
       <r>   -14.3494     4.6921     0.2827 </r>
       <r>   -14.2741    15.4247     1.4449 </r>
       <r>   -14.1987     8.1032     2.0555 </r>
       <r>   -14.1234    -0.3336     2.0304 </r>
       <r>   -14.0480    -0.3765     2.0020 </r>
       <r>   -13.9727    -0.0259     2.0000 </r>
       <r>   -13.8973    -0.0005     2.0000 </r>
       <r>   -13.8220    -0.0000     2.0000 </r>
       <r>   -13.7466    -0.0000     2.0000 </r>
       <r>   -13.6713    -0.0000     2.0000 </r>
       <r>   -13.5959     0.0000     2.0000 </r>
       <r>   -13.5206     0.0000     2.0000 </r>
       <r>   -13.4452     0.0000     2.0000 </r>
       <r>   -13.3699     0.0000     2.0000 </r>
       <r>   -13.2945     0.0000     2.0000 </r>
       <r>   -13.2192     0.0000     2.0000 </r>
       <r>   -13.1438     0.0000     2.0000 </r>
       <r>   -13.0685     0.0000     2.0000 </r>
       <r>   -12.9931     0.0000     2.0000 </r>
       <r>   -12.9178     0.0000     2.0000 </r>
       <r>   -12.8424     0.0000     2.0000 </r>
       <r>   -12.7671     0.0000     2.0000 </r>
       <r>   -12.6917     0.0000     2.0000 </r>
       <r>   -12.6164     0.0000     2.0000 </r>
       <r>   -12.5410     0.0000     2.0000 </r>
       <r>   -12.4657     0.0000     2.0000 </r>
       <r>   -12.3903     0.0000     2.0000 </r>
       <r>   -12.3150     0.0000     2.0000 </r>
       <r>   -12.2396     0.0000     2.0000 </r>
       <r>   -12.1643     0.0000     2.0000 </r>
       <r>   -12.0889     0.0000     2.0000 </r>
       <r>   -12.0136     0.0000     2.0000 </r>
       <r>   -11.9382     0.0000     2.0000 </r>
       <r>   -11.8629     0.0000     2.0000 </r>
       <r>   -11.7875     0.0000     2.0000 </r>
       <r>   -11.7122     0.0000     2.0000 </r>
       <r>   -11.6368     0.0000     2.0000 </r>
       <r>   -11.5615     0.0000     2.0000 </r>
       <r>   -11.4861     0.0000     2.0000 </r>
       <r>   -11.4108     0.0000     2.0000 </r>
       <r>   -11.3354     0.0000     2.0000 </r>
       <r>   -11.2601     0.0000     2.0000 </r>
       <r>   -11.1847     0.0000     2.0000 </r>
       <r>   -11.1094     0.0000     2.0000 </r>
       <r>   -11.0340     0.0000     2.0000 </r>
       <r>   -10.9587     0.0000     2.0000 </r>
       <r>   -10.8833     0.0000     2.0000 </r>
       <r>   -10.8080     0.0000     2.0000 </r>
       <r>   -10.7326     0.0000     2.0000 </r>
       <r>   -10.6573     0.0000     2.0000 </r>
       <r>   -10.5819     0.0000     2.0000 </r>
       <r>   -10.5066     0.0000     2.0000 </r>
       <r>   -10.4312     0.0000     2.0000 </r>
       <r>   -10.3559     0.0000     2.0000 </r>
       <r>   -10.2805     0.0000     2.0000 </r>
       <r>   -10.2052     0.0000     2.0000 </r>
       <r>   -10.1298     0.0000     2.0000 </r>
       <r>   -10.0545     0.0000     2.0000 </r>
       <r>    -9.9791     0.0000     2.0000 </r>
       <r>    -9.9038     0.0000     2.0000 </r>
       <r>    -9.8284     0.0000     2.0000 </r>
       <r>    -9.7531     0.0000     2.0000 </r>
       <r>    -9.6777     0.0000     2.0000 </r>
       <r>    -9.6024     0.0000     2.0000 </r>
       <r>    -9.5270     0.0000     2.0000 </r>
       <r>    -9.4517     0.0000     2.0000 </r>
       <r>    -9.3763     0.0000     2.0000 </r>
       <r>    -9.3010     0.0000     2.0000 </r>
       <r>    -9.2256     0.0000     2.0000 </r>
       <r>    -9.1503     0.0000     2.0000 </r>
       <r>    -9.0749     0.0000     2.0000 </r>
       <r>    -8.9996     0.0000     2.0000 </r>
       <r>    -8.9242     0.0000     2.0000 </r>
       <r>    -8.8489     0.0000     2.0000 </r>
       <r>    -8.7735     0.0000     2.0000 </r>
       <r>    -8.6982     0.0000     2.0000 </r>
       <r>    -8.6228     0.0000     2.0000 </r>
       <r>    -8.5475     0.0000     2.0000 </r>
       <r>    -8.4721     0.0000     2.0000 </r>
       <r>    -8.3968     0.0000     2.0000 </r>
       <r>    -8.3214     0.0000     2.0000 </r>
       <r>    -8.2461     0.0000     2.0000 </r>
       <r>    -8.1707     0.0000     2.0000 </r>
       <r>    -8.0954     0.0000     2.0000 </r>
       <r>    -8.0200     0.0000     2.0000 </r>
       <r>    -7.9447     0.0000     2.0000 </r>
       <r>    -7.8693     0.0000     2.0000 </r>
       <r>    -7.7940     0.0000     2.0000 </r>
       <r>    -7.7186     0.0000     2.0000 </r>
       <r>    -7.6433     0.0000     2.0000 </r>
       <r>    -7.5679     0.0000     2.0000 </r>
       <r>    -7.4926     0.0000     2.0000 </r>
       <r>    -7.4172     0.0000     2.0000 </r>
       <r>    -7.3419     0.0000     2.0000 </r>
       <r>    -7.2665    -0.0000     2.0000 </r>
       <r>    -7.1912    -0.0000     2.0000 </r>
       <r>    -7.1158    -0.0000     2.0000 </r>
       <r>    -7.0405    -0.0000     2.0000 </r>
       <r>    -6.9651    -0.0000     2.0000 </r>
       <r>    -6.8898    -0.0000     2.0000 </r>
       <r>    -6.8144    -0.0000     2.0000 </r>
       <r>    -6.7391    -0.0016     1.9999 </r>
       <r>    -6.6637    -0.0649     1.9950 </r>
       <r>    -6.5884    -0.5888     1.9506 </r>
       <r>    -6.5130     0.8439     2.0142 </r>
       <r>    -6.4377    11.7854     2.9022 </r>
       <r>    -6.3623    13.4631     3.9167 </r>
       <r>    -6.2870     1.8980     4.0597 </r>
       <r>    -6.2116    -0.6877     4.0079 </r>
       <r>    -6.1363    -0.1013     4.0002 </r>
       <r>    -6.0609    -0.0031     4.0000 </r>
       <r>    -5.9856    -0.0000     4.0000 </r>
       <r>    -5.9102    -0.0000     4.0000 </r>
       <r>    -5.8349    -0.0000     4.0000 </r>
       <r>    -5.7595    -0.0000     4.0000 </r>
       <r>    -5.6842    -0.0000     4.0000 </r>
       <r>    -5.6088    -0.0019     3.9999 </r>
       <r>    -5.5335    -0.0707     3.9945 </r>
       <r>    -5.4581    -0.6091     3.9486 </r>
       <r>    -5.3828     1.0157     4.0252 </r>
       <r>    -5.3074    12.1184     4.9383 </r>
       <r>    -5.2321    13.1170     5.9267 </r>
       <r>    -5.1567     1.1049     6.0099 </r>
       <r>    -5.0814     0.0563     6.0142 </r>
       <r>    -5.0060    11.4477     6.8767 </r>
       <r>    -4.9307    13.6546     7.9056 </r>
       <r>    -4.8553     2.0613     8.0609 </r>
       <r>    -4.7800    -0.6981     8.0083 </r>
       <r>    -4.7046    -0.1072     8.0003 </r>
       <r>    -4.6293    -0.0034     8.0000 </r>
       <r>    -4.5539    -0.0000     8.0000 </r>
       <r>    -4.4786    -0.0000     8.0000 </r>
       <r>    -4.4032    -0.0002     8.0000 </r>
       <r>    -4.3279    -0.0184     7.9986 </r>
       <r>    -4.2525    -0.4082     7.9678 </r>
       <r>    -4.1772    -1.4460     7.8589 </r>
       <r>    -4.1018     9.0152     8.5382 </r>
       <r>    -4.0265    30.5862    10.8429 </r>
       <r>    -3.9511    15.9575    12.0453 </r>
       <r>    -3.8758     1.2338    12.1382 </r>
       <r>    -3.8004    11.4198    12.9987 </r>
       <r>    -3.7251    10.0977    13.7596 </r>
       <r>    -3.6497    24.8259    15.6302 </r>
       <r>    -3.5744    77.9957    21.5072 </r>
       <r>    -3.4990    80.6042    27.5807 </r>
       <r>    -3.4237    73.8424    33.1448 </r>
       <r>    -3.3483    68.7692    38.3266 </r>
       <r>    -3.2730    34.6186    40.9351 </r>
       <r>    -3.1976    44.4721    44.2861 </r>
       <r>    -3.1223    58.7135    48.7101 </r>
       <r>    -3.0469    53.0145    52.7048 </r>
       <r>    -2.9716    87.8259    59.3225 </r>
       <r>    -2.8962    71.2888    64.6941 </r>
       <r>    -2.8209    52.4896    68.6492 </r>
       <r>    -2.7455    53.8316    72.7054 </r>
       <r>    -2.6702   109.4579    80.9531 </r>
       <r>    -2.5948   104.9637    88.8621 </r>
       <r>    -2.5195    26.0151    90.8223 </r>
       <r>    -2.4441    28.7138    92.9859 </r>
       <r>    -2.3688    63.9378    97.8037 </r>
       <r>    -2.2934    67.2284   102.8693 </r>
       <r>    -2.2181    86.5274   109.3892 </r>
       <r>    -2.1427    76.1475   115.1269 </r>
       <r>    -2.0674    45.8804   118.5840 </r>
       <r>    -1.9920    46.6623   122.1000 </r>
       <r>    -1.9167    44.0939   125.4225 </r>
       <r>    -1.8413    79.0723   131.3806 </r>
       <r>    -1.7660    83.4677   137.6699 </r>
       <r>    -1.6906    66.3692   142.6709 </r>
       <r>    -1.6153    61.0972   147.2745 </r>
       <r>    -1.5399    52.5633   151.2352 </r>
       <r>    -1.4646    86.0231   157.7170 </r>
       <r>    -1.3892   136.7371   168.0202 </r>
       <r>    -1.3139   112.0796   176.4654 </r>
       <r>    -1.2385    59.6806   180.9624 </r>
       <r>    -1.1632    89.7697   187.7265 </r>
       <r>    -1.0878   105.7294   195.6932 </r>
       <r>    -1.0125    79.3672   201.6736 </r>
       <r>    -0.9371    67.2138   206.7381 </r>
       <r>    -0.8618    58.5130   211.1471 </r>
       <r>    -0.7864    63.1753   215.9074 </r>
       <r>    -0.7111    45.5903   219.3426 </r>
       <r>    -0.6357    53.5613   223.3785 </r>
       <r>    -0.5604   118.0978   232.2772 </r>
       <r>    -0.4850   147.3920   243.3832 </r>
       <r>    -0.4097   106.4599   251.4049 </r>
       <r>    -0.3343    75.2289   257.0734 </r>
       <r>    -0.2590    54.6382   261.1904 </r>
       <r>    -0.1836    86.9070   267.7389 </r>
       <r>    -0.1083   103.4871   275.5367 </r>
       <r>    -0.0329    60.2312   280.0751 </r>
       <r>     0.0424    67.7290   285.1785 </r>
       <r>     0.1178   110.0664   293.4720 </r>
       <r>     0.1931    84.4697   299.8368 </r>
       <r>     0.2685    39.1763   302.7887 </r>
       <r>     0.3438    53.2253   306.7993 </r>
       <r>     0.4192    92.9038   313.7996 </r>
       <r>     0.4945   121.6606   322.9667 </r>
       <r>     0.5699    92.1164   329.9077 </r>
       <r>     0.6452    80.0335   335.9383 </r>
       <r>     0.7206   129.7559   345.7154 </r>
       <r>     0.7959   112.9918   354.2293 </r>
       <r>     0.8713    78.8505   360.1707 </r>
       <r>     0.9466   104.4136   368.0383 </r>
       <r>     1.0220    96.8229   375.3339 </r>
       <r>     1.0973    41.3084   378.4465 </r>
       <r>     1.1727    20.8148   380.0149 </r>
       <r>     1.2480    30.3271   382.3001 </r>
       <r>     1.3234    22.4745   383.9935 </r>
       <r>     1.3987     1.4003   384.0990 </r>
       <r>     1.4741    -1.2025   384.0084 </r>
       <r>     1.5494    -0.4852   383.9719 </r>
       <r>     1.6248    -1.1922   383.8820 </r>
       <r>     1.7001     5.9524   384.3306 </r>
       <r>     1.7755    29.7638   386.5733 </r>
       <r>     1.8508    35.4347   389.2433 </r>
       <r>     1.9262    16.8291   390.5114 </r>
       <r>     2.0015    28.4068   392.6518 </r>
       <r>     2.0769    29.8357   394.8999 </r>
       <r>     2.1522    13.2432   395.8978 </r>
       <r>     2.2276     5.6833   396.3260 </r>
       <r>     2.3029    13.6711   397.3562 </r>
       <r>     2.3783    21.2503   398.9574 </r>
       <r>     2.4536    30.7633   401.2754 </r>
       <r>     2.5290    11.4518   402.1383 </r>
       <r>     2.6043    -1.3038   402.0401 </r>
       <r>     2.6797    -0.9625   401.9675 </r>
       <r>     2.7550    -0.1597   401.9555 </r>
       <r>     2.8304     9.0301   402.6359 </r>
       <r>     2.9057    15.1153   403.7749 </r>
       <r>     2.9811     3.9151   404.0699 </r>
       <r>     3.0564    -0.7408   404.0140 </r>
       <r>     3.1318    -0.1925   403.9995 </r>
       <r>     3.2071    -0.2694   403.9792 </r>
       <r>     3.2825    -0.7986   403.9190 </r>
       <r>     3.3578     4.8687   404.2859 </r>
       <r>     3.4332    18.5774   405.6857 </r>
       <r>     3.5085    21.2880   407.2898 </r>
       <r>     3.5839    16.5177   408.5344 </r>
       <r>     3.6592    21.3932   410.1464 </r>
       <r>     3.7346    27.1944   412.1955 </r>
       <r>     3.8099    24.0021   414.0040 </r>
       <r>     3.8853    17.7422   415.3409 </r>
       <r>     3.9606     8.3744   415.9719 </r>
       <r>     4.0360     7.0728   416.5049 </r>
       <r>     4.1113    15.6128   417.6813 </r>
       <r>     4.1867    16.3065   418.9100 </r>
       <r>     4.2620    12.5535   419.8559 </r>
       <r>     4.3374     2.1603   420.0187 </r>
       <r>     4.4127    12.0325   420.9253 </r>
       <r>     4.4881    26.2715   422.9049 </r>
       <r>     4.5634    14.6497   424.0087 </r>
       <r>     4.6388     0.7059   424.0619 </r>
       <r>     4.7141    -0.7305   424.0069 </r>
       <r>     4.7895    -0.1587   423.9949 </r>
       <r>     4.8649    -0.8624   423.9299 </r>
       <r>     4.9402    -0.1554   423.9182 </r>
       <r>     5.0156    18.0919   425.2815 </r>
       <r>     5.0909    30.0013   427.5421 </r>
       <r>     5.1663     7.8707   428.1351 </r>
       <r>     5.2416    -1.9596   427.9875 </r>
       <r>     5.3170    -1.9186   427.8429 </r>
       <r>     5.3923    10.3547   428.6231 </r>
       <r>     5.4677    37.9210   431.4805 </r>
       <r>     5.5430    29.9086   433.7341 </r>
       <r>     5.6184     4.1940   434.0501 </r>
       <r>     5.6937     1.2220   434.1422 </r>
       <r>     5.7691    14.5256   435.2367 </r>
       <r>     5.8444    20.1487   436.7549 </r>
       <r>     5.9198    13.0003   437.7345 </r>
       <r>     5.9951     3.9530   438.0323 </r>
       <r>     6.0705    -0.8394   437.9691 </r>
       <r>     6.1458     2.2182   438.1362 </r>
       <r>     6.2212    11.8154   439.0265 </r>
       <r>     6.2965    11.4484   439.8892 </r>
       <r>     6.3719     2.1242   440.0492 </r>
       <r>     6.4472    -0.5314   440.0092 </r>
       <r>     6.5226    -0.1168   440.0004 </r>
       <r>     6.5979    -0.0050   440.0000 </r>
       <r>     6.6733    -0.0001   440.0000 </r>
       <r>     6.7486    -0.0000   440.0000 </r>
       <r>     6.8240    -0.0000   440.0000 </r>
       <r>     6.8993    -0.0000   440.0000 </r>
       <r>     6.9747     0.0000   440.0000 </r>
       <r>     7.0500     0.0000   440.0000 </r>
       <r>     7.1254     0.0000   440.0000 </r>
       <r>     7.2007     0.0000   440.0000 </r>
       <r>     7.2761     0.0000   440.0000 </r>
      </set>
     </set>
    </array>
   </total>
  </dos>
 </calculation>
 <structure name="finalpos" >
  <crystal>
   <varray name="basis" >
    <v>       8.35800215       0.00000000       0.00000000 </v>
    <v>       0.00000000       8.35800215       0.00000000 </v>
    <v>       0.00000000       0.00000000      19.91000000 </v>
   </varray>
   <i name="volume">   1390.83694200 </i>
   <varray name="rec_basis" >
    <v>       0.11964582       0.00000000       0.00000000 </v>
    <v>       0.00000000       0.11964582       0.00000000 </v>
    <v>       0.00000000       0.00000000       0.05022602 </v>
   </varray>
  </crystal>
  <varray name="positions" >
   <v>       0.16666667       0.16666667       0.00000000 </v>
   <v>       0.50000000       0.16666667       0.00000000 </v>
   <v>       0.83333333       0.16666667       0.00000000 </v>
   <v>       0.16666667       0.50000000       0.00000000 </v>
   <v>       0.50000000       0.50000000       0.00000000 </v>
   <v>       0.83333333       0.50000000       0.00000000 </v>
   <v>       0.16666667       0.83333333       0.00000000 </v>
   <v>       0.50000000       0.83333333       0.00000000 </v>
   <v>       0.83333333       0.83333333       0.00000000 </v>
   <v>       0.00000000       0.00000000       0.09894525 </v>
   <v>       0.33333333       0.00000000       0.09894525 </v>
   <v>       0.66666667       0.00000000       0.09894525 </v>
   <v>       0.00000000       0.33333333       0.09894525 </v>
   <v>       0.33333333       0.33333333       0.09894525 </v>
   <v>       0.66666667       0.33333333       0.09894525 </v>
   <v>       0.00000000       0.66666667       0.09894525 </v>
   <v>       0.33333333       0.66666667       0.09894525 </v>
   <v>       0.66666667       0.66666667       0.09894525 </v>
   <v>       0.16791796       0.16776752       0.19783517 </v>
   <v>       0.49768366       0.16738138       0.19751987 </v>
   <v>       0.83291904       0.16570856       0.19630799 </v>
   <v>       0.16733475       0.49775003       0.19750055 </v>
   <v>       0.49797031       0.49783188       0.19729006 </v>
   <v>       0.83282881       0.50043795       0.19627074 </v>
   <v>       0.16567903       0.83289428       0.19630674 </v>
   <v>       0.50039948       0.83280535       0.19626484 </v>
   <v>       0.83305667       0.83309130       0.19606477 </v>
   <v>       0.99840936       0.99845428       0.29484484 </v>
   <v>       0.33300461       0.99656483       0.29408601 </v>
   <v>       0.66687001       0.99860071       0.29480327 </v>
   <v>       0.99710769       0.33299244       0.29404154 </v>
   <v>       0.33212060       0.33101481       0.30321050 </v>
   <v>       0.66682191       0.33272960       0.29371537 </v>
   <v>       0.99857774       0.66689389       0.29479029 </v>
   <v>       0.33272691       0.66637751       0.29370479 </v>
   <v>       0.66673890       0.66677792       0.29465678 </v>
   <v>       0.48994049       0.33814957       0.43176021 </v>
   <v>       0.32372911       0.50209169       0.42810715 </v>
   <v>       0.32995375       0.34074956       0.41889927 </v>
  </varray>
  <varray name="selective"  type="logical" >
   <v type="logical" >  F  F  F </v>
   <v type="logical" >  F  F  F </v>
   <v type="logical" >  F  F  F </v>
   <v type="logical" >  F  F  F </v>
   <v type="logical" >  F  F  F </v>
   <v type="logical" >  F  F  F </v>
   <v type="logical" >  F  F  F </v>
   <v type="logical" >  F  F  F </v>
   <v type="logical" >  F  F  F </v>
   <v type="logical" >  F  F  F </v>
   <v type="logical" >  F  F  F </v>
   <v type="logical" >  F  F  F </v>
   <v type="logical" >  F  F  F </v>
   <v type="logical" >  F  F  F </v>
   <v type="logical" >  F  F  F </v>
   <v type="logical" >  F  F  F </v>
   <v type="logical" >  F  F  F </v>
   <v type="logical" >  F  F  F </v>
   <v type="logical" >  T  T  T </v>
   <v type="logical" >  T  T  T </v>
   <v type="logical" >  T  T  T </v>
   <v type="logical" >  T  T  T </v>
   <v type="logical" >  T  T  T </v>
   <v type="logical" >  T  T  T </v>
   <v type="logical" >  T  T  T </v>
   <v type="logical" >  T  T  T </v>
   <v type="logical" >  T  T  T </v>
   <v type="logical" >  T  T  T </v>
   <v type="logical" >  T  T  T </v>
   <v type="logical" >  T  T  T </v>
   <v type="logical" >  T  T  T </v>
   <v type="logical" >  T  T  T </v>
   <v type="logical" >  T  T  T </v>
   <v type="logical" >  T  T  T </v>
   <v type="logical" >  T  T  T </v>
   <v type="logical" >  T  T  T </v>
   <v type="logical" >  T  T  T </v>
   <v type="logical" >  T  T  T </v>
   <v type="logical" >  T  T  T </v>
  </varray>
  <nose>
   <v>      -3.00000000       0.00000000       0.00010000       0.00010000 </v>
  </nose>
 </structure>
</modeling>
