unknown system                          
           1
     8.358002    0.000000    0.000000
     0.000000    8.358002    0.000000
     0.000000    0.000000   19.910000
   Pd   H    S 
    36     2     1
Direct configuration=     1
   0.16666667  0.16666667  0.00000000
   0.50000000  0.16666667  0.00000000
   0.83333333  0.16666667  0.00000000
   0.16666667  0.50000000  0.00000000
   0.50000000  0.50000000  0.00000000
   0.83333333  0.50000000  0.00000000
   0.16666667  0.83333333  0.00000000
   0.50000000  0.83333333  0.00000000
   0.83333333  0.83333333  0.00000000
   0.00000000  0.00000000  0.09894525
   0.33333333  0.00000000  0.09894525
   0.66666667  0.00000000  0.09894525
   0.00000000  0.33333333  0.09894525
   0.33333333  0.33333333  0.09894525
   0.66666667  0.33333333  0.09894525
   0.00000000  0.66666667  0.09894525
   0.33333333  0.66666667  0.09894525
   0.66666667  0.66666667  0.09894525
   0.16791796  0.16776752  0.19783517
   0.49768366  0.16738138  0.19751987
   0.83291904  0.16570856  0.19630799
   0.16733475  0.49775003  0.19750055
   0.49797031  0.49783188  0.19729006
   0.83282881  0.50043795  0.19627074
   0.16567903  0.83289428  0.19630674
   0.50039948  0.83280535  0.19626484
   0.83305667  0.83309130  0.19606477
   0.99840936  0.99845428  0.29484484
   0.33300461  0.99656483  0.29408601
   0.66687001  0.99860071  0.29480327
   0.99710769  0.33299244  0.29404154
   0.33212060  0.33101481  0.30321050
   0.66682191  0.33272960  0.29371537
   0.99857774  0.66689389  0.29479029
   0.33272691  0.66637751  0.29370479
   0.66673890  0.66677792  0.29465678
   0.48994049  0.33814957  0.43176021
   0.32372911  0.50209169  0.42810715
   0.32995375  0.34074956  0.41889927
