  39  39   0   0
  0.3566249E+02  0.8358002E-09  0.8358002E-09  0.1991000E-08  0.5000000E-15
   1.0000000000000000E-004
  CAR 
 unknown system                          
      6.97425046    -14.23547408  301      0.68643696      1.00000000
    -14.235  0.0000E+00  0.0000E+00
    -14.165  0.0000E+00  0.0000E+00
    -14.094 -0.6602E-30 -0.4667E-31
    -14.023 -0.6884E-25 -0.4867E-26
    -13.953 -0.2620E-20 -0.1852E-21
    -13.882 -0.3634E-16 -0.2569E-17
    -13.811 -0.1785E-12 -0.1262E-13
    -13.741 -0.3220E-09 -0.2278E-10
    -13.670 -0.2092E-06 -0.1481E-07
    -13.599 -0.4819E-04 -0.3421E-05
    -13.528 -0.3836E-02 -0.2746E-03
    -13.458 -0.9919E-01 -0.7287E-02
    -13.387 -0.6587E+00 -0.5385E-01
    -13.316  0.9782E+00  0.1531E-01
    -13.246  0.1150E+02  0.8281E+00
    -13.175  0.1437E+02  0.1844E+01
    -13.104  0.3175E+01  0.2069E+01
    -13.034 -0.7611E+00  0.2015E+01
    -12.963 -0.2014E+00  0.2001E+01
    -12.892 -0.1107E-01  0.2000E+01
    -12.821 -0.1907E-03  0.2000E+01
    -12.751 -0.1121E-05  0.2000E+01
    -12.680 -0.2325E-08  0.2000E+01
    -12.609 -0.1727E-11  0.2000E+01
    -12.539  0.0000E+00  0.2000E+01
    -12.468  0.0000E+00  0.2000E+01
    -12.397  0.0000E+00  0.2000E+01
    -12.327  0.0000E+00  0.2000E+01
    -12.256  0.0000E+00  0.2000E+01
    -12.185  0.0000E+00  0.2000E+01
    -12.115  0.0000E+00  0.2000E+01
    -12.044  0.0000E+00  0.2000E+01
    -11.973  0.0000E+00  0.2000E+01
    -11.902  0.0000E+00  0.2000E+01
    -11.832  0.0000E+00  0.2000E+01
    -11.761  0.0000E+00  0.2000E+01
    -11.690  0.0000E+00  0.2000E+01
    -11.620  0.0000E+00  0.2000E+01
    -11.549  0.0000E+00  0.2000E+01
    -11.478  0.0000E+00  0.2000E+01
    -11.408  0.0000E+00  0.2000E+01
    -11.337  0.0000E+00  0.2000E+01
    -11.266  0.0000E+00  0.2000E+01
    -11.195  0.0000E+00  0.2000E+01
    -11.125  0.0000E+00  0.2000E+01
    -11.054  0.0000E+00  0.2000E+01
    -10.983  0.0000E+00  0.2000E+01
    -10.913  0.0000E+00  0.2000E+01
    -10.842  0.0000E+00  0.2000E+01
    -10.771  0.0000E+00  0.2000E+01
    -10.701  0.0000E+00  0.2000E+01
    -10.630  0.0000E+00  0.2000E+01
    -10.559  0.0000E+00  0.2000E+01
    -10.488  0.0000E+00  0.2000E+01
    -10.418  0.0000E+00  0.2000E+01
    -10.347  0.0000E+00  0.2000E+01
    -10.276  0.0000E+00  0.2000E+01
    -10.206  0.0000E+00  0.2000E+01
    -10.135  0.0000E+00  0.2000E+01
    -10.064  0.0000E+00  0.2000E+01
     -9.994  0.0000E+00  0.2000E+01
     -9.923  0.0000E+00  0.2000E+01
     -9.852  0.0000E+00  0.2000E+01
     -9.781  0.0000E+00  0.2000E+01
     -9.711  0.0000E+00  0.2000E+01
     -9.640  0.0000E+00  0.2000E+01
     -9.569  0.0000E+00  0.2000E+01
     -9.499  0.0000E+00  0.2000E+01
     -9.428  0.0000E+00  0.2000E+01
     -9.357  0.0000E+00  0.2000E+01
     -9.287  0.0000E+00  0.2000E+01
     -9.216  0.0000E+00  0.2000E+01
     -9.145  0.0000E+00  0.2000E+01
     -9.074  0.0000E+00  0.2000E+01
     -9.004  0.0000E+00  0.2000E+01
     -8.933  0.0000E+00  0.2000E+01
     -8.862  0.0000E+00  0.2000E+01
     -8.792  0.0000E+00  0.2000E+01
     -8.721  0.0000E+00  0.2000E+01
     -8.650  0.0000E+00  0.2000E+01
     -8.580  0.0000E+00  0.2000E+01
     -8.509  0.0000E+00  0.2000E+01
     -8.438  0.0000E+00  0.2000E+01
     -8.367  0.0000E+00  0.2000E+01
     -8.297  0.0000E+00  0.2000E+01
     -8.226  0.0000E+00  0.2000E+01
     -8.155  0.0000E+00  0.2000E+01
     -8.085  0.0000E+00  0.2000E+01
     -8.014  0.0000E+00  0.2000E+01
     -7.943  0.0000E+00  0.2000E+01
     -7.873  0.0000E+00  0.2000E+01
     -7.802  0.0000E+00  0.2000E+01
     -7.731  0.0000E+00  0.2000E+01
     -7.660  0.0000E+00  0.2000E+01
     -7.590  0.0000E+00  0.2000E+01
     -7.519  0.0000E+00  0.2000E+01
     -7.448  0.0000E+00  0.2000E+01
     -7.378  0.0000E+00  0.2000E+01
     -7.307  0.0000E+00  0.2000E+01
     -7.236  0.0000E+00  0.2000E+01
     -7.166  0.0000E+00  0.2000E+01
     -7.095  0.0000E+00  0.2000E+01
     -7.024  0.0000E+00  0.2000E+01
     -6.953  0.0000E+00  0.2000E+01
     -6.883  0.0000E+00  0.2000E+01
     -6.812  0.0000E+00  0.2000E+01
     -6.741  0.0000E+00  0.2000E+01
     -6.671  0.0000E+00  0.2000E+01
     -6.600 -0.7944E-29  0.2000E+01
     -6.529 -0.6685E-24  0.2000E+01
     -6.459 -0.2054E-19  0.2000E+01
     -6.388 -0.2302E-15  0.2000E+01
     -6.317 -0.9088E-12  0.2000E+01
     -6.246 -0.1328E-08  0.2000E+01
     -6.176 -0.6961E-06  0.2000E+01
     -6.105 -0.1290E-03  0.2000E+01
     -6.034 -0.8197E-02  0.1999E+01
     -5.964 -0.1654E+00  0.1988E+01
     -5.893 -0.7510E+00  0.1935E+01
     -5.822  0.2421E+01  0.2106E+01
     -5.752  0.1363E+02  0.3070E+01
     -5.681  0.1246E+02  0.3951E+01
     -5.610  0.1478E+01  0.4055E+01
     -5.539 -0.1219E+01  0.3969E+01
     -5.469 -0.1232E+00  0.3960E+01
     -5.398  0.8918E+01  0.4591E+01
     -5.327  0.1556E+02  0.5691E+01
     -5.257  0.5360E+01  0.6070E+01
     -5.186 -0.6827E+00  0.6021E+01
     -5.115 -0.6959E+00  0.5972E+01
     -5.045 -0.4586E+00  0.5940E+01
     -4.974  0.6621E+01  0.6408E+01
     -4.903  0.1560E+02  0.7511E+01
     -4.832  0.7648E+01  0.8051E+01
     -4.762 -0.2413E+00  0.8034E+01
     -4.691 -0.4405E+00  0.8003E+01
     -4.620 -0.4982E-01  0.8000E+01
     -4.550 -0.1395E+00  0.7990E+01
     -4.479 -0.8354E+00  0.7931E+01
     -4.408  0.8248E+00  0.7989E+01
     -4.338  0.1469E+02  0.9028E+01
     -4.267  0.2754E+02  0.1097E+02
     -4.196  0.1368E+02  0.1194E+02
     -4.126  0.1128E+01  0.1202E+02
     -4.055  0.1887E+02  0.1336E+02
     -3.984  0.3736E+02  0.1600E+02
     -3.913  0.2352E+02  0.1766E+02
     -3.843  0.3510E+02  0.2014E+02
     -3.772  0.7525E+02  0.2546E+02
     -3.701  0.6694E+02  0.3019E+02
     -3.631  0.6384E+02  0.3471E+02
     -3.560  0.7011E+02  0.3966E+02
     -3.489  0.4934E+02  0.4315E+02
     -3.419  0.4755E+02  0.4651E+02
     -3.348  0.5629E+02  0.5049E+02
     -3.277  0.5692E+02  0.5452E+02
     -3.206  0.8516E+02  0.6054E+02
     -3.136  0.8036E+02  0.6622E+02
     -3.065  0.5996E+02  0.7046E+02
     -2.994  0.5688E+02  0.7448E+02
     -2.924  0.8800E+02  0.8070E+02
     -2.853  0.9576E+02  0.8747E+02
     -2.782  0.5153E+02  0.9111E+02
     -2.712  0.3291E+02  0.9344E+02
     -2.641  0.4896E+02  0.9690E+02
     -2.570  0.6934E+02  0.1018E+03
     -2.499  0.7484E+02  0.1071E+03
     -2.429  0.8969E+02  0.1134E+03
     -2.358  0.7559E+02  0.1188E+03
     -2.287  0.5336E+02  0.1226E+03
     -2.217  0.5647E+02  0.1265E+03
     -2.146  0.6240E+02  0.1310E+03
     -2.075  0.6970E+02  0.1359E+03
     -2.005  0.7118E+02  0.1409E+03
     -1.934  0.6636E+02  0.1456E+03
     -1.863  0.5431E+02  0.1494E+03
     -1.792  0.5450E+02  0.1533E+03
     -1.722  0.8734E+02  0.1595E+03
     -1.651  0.1153E+03  0.1676E+03
     -1.580  0.1198E+03  0.1761E+03
     -1.510  0.9333E+02  0.1827E+03
     -1.439  0.8306E+02  0.1886E+03
     -1.368  0.8960E+02  0.1949E+03
     -1.298  0.8338E+02  0.2008E+03
     -1.227  0.7458E+02  0.2061E+03
     -1.156  0.5231E+02  0.2098E+03
     -1.085  0.5641E+02  0.2138E+03
     -1.015  0.7568E+02  0.2191E+03
     -0.944  0.6426E+02  0.2237E+03
     -0.873  0.7743E+02  0.2291E+03
     -0.803  0.1199E+03  0.2376E+03
     -0.732  0.1224E+03  0.2463E+03
     -0.661  0.1005E+03  0.2534E+03
     -0.591  0.8150E+02  0.2591E+03
     -0.520  0.6421E+02  0.2637E+03
     -0.449  0.7994E+02  0.2693E+03
     -0.378  0.9309E+02  0.2759E+03
     -0.308  0.6792E+02  0.2807E+03
     -0.237  0.6694E+02  0.2854E+03
     -0.166  0.9417E+02  0.2921E+03
     -0.096  0.8930E+02  0.2984E+03
     -0.025  0.5996E+02  0.3026E+03
      0.046  0.5538E+02  0.3066E+03
      0.116  0.7757E+02  0.3120E+03
      0.187  0.1069E+03  0.3196E+03
      0.258  0.1029E+03  0.3269E+03
      0.329  0.7405E+02  0.3321E+03
      0.399  0.9344E+02  0.3387E+03
      0.470  0.1252E+03  0.3476E+03
      0.541  0.1025E+03  0.3548E+03
      0.611  0.8084E+02  0.3605E+03
      0.682  0.9911E+02  0.3675E+03
      0.753  0.9535E+02  0.3743E+03
      0.823  0.5527E+02  0.3782E+03
      0.894  0.2670E+02  0.3801E+03
      0.965  0.1625E+02  0.3812E+03
      1.036  0.1681E+02  0.3824E+03
      1.106  0.1634E+02  0.3836E+03
      1.177  0.6433E+01  0.3840E+03
      1.248  0.3080E+00  0.3840E+03
      1.318  0.8811E+01  0.3847E+03
      1.389  0.1325E+02  0.3856E+03
      1.460  0.8685E+01  0.3862E+03
      1.530  0.2162E+02  0.3877E+03
      1.601  0.3281E+02  0.3901E+03
      1.672  0.2602E+02  0.3919E+03
      1.743  0.1953E+02  0.3933E+03
      1.813  0.1711E+02  0.3945E+03
      1.884  0.1248E+02  0.3954E+03
      1.955  0.8376E+01  0.3960E+03
      2.025  0.1184E+02  0.3968E+03
      2.096  0.1817E+02  0.3981E+03
      2.167  0.1787E+02  0.3993E+03
      2.237  0.1342E+02  0.4003E+03
      2.308  0.1518E+02  0.4014E+03
      2.379  0.8824E+01  0.4020E+03
      2.450  0.1856E+00  0.4020E+03
      2.520  0.6747E+01  0.4025E+03
      2.591  0.1476E+02  0.4035E+03
      2.662  0.7198E+01  0.4040E+03
      2.732 -0.2769E+00  0.4040E+03
      2.803 -0.7158E+00  0.4040E+03
      2.874  0.3096E+01  0.4042E+03
      2.944  0.9106E+01  0.4048E+03
      3.015  0.1030E+02  0.4056E+03
      3.086  0.5376E+01  0.4059E+03
      3.157  0.1032E+01  0.4060E+03
      3.227  0.9997E+01  0.4067E+03
      3.298  0.1944E+02  0.4081E+03
      3.369  0.1887E+02  0.4094E+03
      3.439  0.1826E+02  0.4107E+03
      3.510  0.2422E+02  0.4124E+03
      3.581  0.1819E+02  0.4137E+03
      3.651  0.6026E+01  0.4141E+03
      3.722  0.9781E+01  0.4148E+03
      3.793  0.1297E+02  0.4158E+03
      3.863  0.8456E+01  0.4163E+03
      3.934  0.9475E+01  0.4170E+03
      4.005  0.9352E+01  0.4177E+03
      4.076  0.3984E+01  0.4180E+03
      4.146  0.6356E+01  0.4184E+03
      4.217  0.1529E+02  0.4195E+03
      4.288  0.1468E+02  0.4205E+03
      4.358  0.1463E+02  0.4216E+03
      4.429  0.6497E+01  0.4220E+03
      4.500 -0.7301E+00  0.4220E+03
      4.570  0.4100E+01  0.4223E+03
      4.641  0.1379E+02  0.4232E+03
      4.712  0.1319E+02  0.4242E+03
      4.783  0.1478E+02  0.4252E+03
      4.853  0.1067E+02  0.4260E+03
      4.924  0.7664E+01  0.4265E+03
      4.995  0.1348E+02  0.4275E+03
      5.065  0.6948E+01  0.4280E+03
      5.136  0.2874E+01  0.4282E+03
      5.207  0.1277E+02  0.4291E+03
      5.277  0.1243E+02  0.4299E+03
      5.348  0.9321E+01  0.4306E+03
      5.419  0.1281E+02  0.4315E+03
      5.490  0.9844E+01  0.4322E+03
      5.560  0.1413E+02  0.4332E+03
      5.631  0.1254E+02  0.4341E+03
      5.702  0.7836E+01  0.4346E+03
      5.772  0.9444E+01  0.4353E+03
      5.843  0.1508E+02  0.4364E+03
      5.914  0.1939E+02  0.4377E+03
      5.984  0.2163E+02  0.4393E+03
      6.055  0.1089E+02  0.4400E+03
      6.126  0.1679E+00  0.4401E+03
      6.197 -0.6749E+00  0.4400E+03
      6.267 -0.8527E-01  0.4400E+03
      6.338 -0.3021E-02  0.4400E+03
      6.409 -0.3562E-04  0.4400E+03
      6.479 -0.1470E-06  0.4400E+03
      6.550 -0.2166E-09  0.4400E+03
      6.621 -0.1162E-12  0.4400E+03
      6.691  0.0000E+00  0.4400E+03
      6.762  0.0000E+00  0.4400E+03
      6.833  0.0000E+00  0.4400E+03
      6.904  0.0000E+00  0.4400E+03
      6.974  0.0000E+00  0.4400E+03
