   39   39    1    1
  0.3566249E+02  0.8358002E-09  0.8358002E-09  0.1991000E-08  0.5000000E-15
   1.0000000000000000E-004
  CAR 
 unknown system                          
    368      2    220

  0.2500000E+00  0.2500000E+00  0.1262379E-14  0.5000000E+00
      1        -13.235474   1.000000
      2         -5.753559   1.000000
      3         -5.373914   1.000000
      4         -4.944510   1.000000
      5         -4.314196   1.000000
      6         -4.276861   1.000000
      7         -4.057443   1.000000
      8         -4.019871   1.000000
      9         -3.965469   1.000000
     10         -3.832837   1.000000
     11         -3.820894   1.000000
     12         -3.809080   1.000000
     13         -3.795468   1.000000
     14         -3.758021   1.000000
     15         -3.733798   1.000000
     16         -3.671374   1.000000
     17         -3.642210   1.000000
     18         -3.625039   1.000000
     19         -3.601563   1.000000
     20         -3.585074   1.000000
     21         -3.538329   1.000000
     22         -3.502509   1.000000
     23         -3.414272   1.000000
     24         -3.404458   1.000000
     25         -3.391812   1.000000
     26         -3.365716   1.000000
     27         -3.268366   1.000000
     28         -3.258407   1.000000
     29         -3.241605   1.000000
     30         -3.227501   1.000000
     31         -3.222187   1.000000
     32         -3.172656   1.000000
     33         -3.150788   1.000000
     34         -3.127059   1.000000
     35         -3.097155   1.000000
     36         -3.046646   1.000000
     37         -3.038079   1.000000
     38         -2.981554   1.000000
     39         -2.945595   1.000000
     40         -2.924699   1.000000
     41         -2.913788   1.000000
     42         -2.907588   1.000000
     43         -2.894019   1.000000
     44         -2.886986   1.000000
     45         -2.830070   1.000000
     46         -2.763918   1.000000
     47         -2.740319   1.000000
     48         -2.657475   1.000000
     49         -2.628537   1.000000
     50         -2.618501   1.000000
     51         -2.595224   1.000000
     52         -2.547839   1.000000
     53         -2.528941   1.000000
     54         -2.485595   1.000000
     55         -2.479684   1.000000
     56         -2.458044   1.000000
     57         -2.436119   1.000000
     58         -2.415606   1.000000
     59         -2.402692   1.000000
     60         -2.336605   1.000000
     61         -2.319879   1.000000
     62         -2.267582   1.000000
     63         -2.251533   1.000000
     64         -2.217949   1.000000
     65         -2.194994   1.000000
     66         -2.129612   1.000000
     67         -2.112882   1.000000
     68         -2.094220   1.000000
     69         -2.060089   1.000000
     70         -2.036882   1.000000
     71         -1.991288   1.000000
     72         -1.963973   1.000000
     73         -1.957326   1.000000
     74         -1.911451   1.000000
     75         -1.889188   1.000000
     76         -1.825234   1.000000
     77         -1.781828   1.000000
     78         -1.767392   1.000000
     79         -1.746644   1.000000
     80         -1.735544   1.000000
     81         -1.714450   1.000000
     82         -1.685044   1.000000
     83         -1.660541   1.000000
     84         -1.650475   1.000000
     85         -1.633733   1.000000
     86         -1.617819   1.000000
     87         -1.615443   1.000000
     88         -1.588916   1.000000
     89         -1.568551   1.000000
     90         -1.555723   1.000000
     91         -1.542224   1.000000
     92         -1.496363   1.000000
     93         -1.471131   1.000000
     94         -1.461255   1.000000
     95         -1.435994   1.000000
     96         -1.414867   1.000000
     97         -1.398288   1.000000
     98         -1.369174   1.000000
     99         -1.342386   1.000000
    100         -1.303744   1.000000
    101         -1.288855   1.000000
    102         -1.262989   1.000000
    103         -1.246800   1.000000
    104         -1.230141   1.000000
    105         -1.208000   1.000000
    106         -1.104738   1.000000
    107         -1.081310   1.000000
    108         -1.060484   1.000000
    109         -1.047366   1.000000
    110         -1.017266   1.000000
    111         -0.999180   1.000000
    112         -0.957692   1.000000
    113         -0.930025   1.000000
    114         -0.883944   1.000000
    115         -0.860190   1.000000
    116         -0.856673   1.000000
    117         -0.842630   1.000000
    118         -0.829807   1.000000
    119         -0.804332   1.000000
    120         -0.801885   1.000000
    121         -0.779153   1.000000
    122         -0.765915   1.000000
    123         -0.750888   1.000000
    124         -0.728290   1.000000
    125         -0.703933   1.000000
    126         -0.677569   1.000000
    127         -0.661425   1.000000
    128         -0.644543   1.000000
    129         -0.621700   1.000000
    130         -0.598062   1.000000
    131         -0.568924   1.000000
    132         -0.527413   1.000000
    133         -0.496044   1.000000
    134         -0.461207   1.000000
    135         -0.447775   1.000000
    136         -0.422973   1.000000
    137         -0.415967   1.000000
    138         -0.402571   1.000000
    139         -0.376945   1.000000
    140         -0.333893   1.000000
    141         -0.289861   1.000000
    142         -0.255867   1.000000
    143         -0.232344   1.000000
    144         -0.214228   1.000000
    145         -0.204559   1.000000
    146         -0.166976   1.000000
    147         -0.157029   1.000000
    148         -0.142039   1.000000
    149         -0.135809   1.000000
    150         -0.093189   1.000000
    151         -0.053691   1.000000
    152         -0.025303   1.000000
    153          0.029250   1.000000
    154          0.059822   1.000000
    155          0.087049   1.000000
    156          0.097762   1.000000
    157          0.135979   1.000000
    158          0.143742   1.000000
    159          0.171246   1.000000
    160          0.184294   1.000000
    161          0.194527   1.000000
    162          0.213745   1.000000
    163          0.227114   1.000000
    164          0.252981   1.000000
    165          0.272495   1.000000
    166          0.327884   1.000002
    167          0.351804   1.000012
    168          0.369072   1.000034
    169          0.389111   1.000108
    170          0.408772   1.000308
    171          0.418787   1.000508
    172          0.436851   1.001180
    173          0.448831   1.001979
    174          0.464007   1.003627
    175          0.472068   1.004890
    176          0.484917   1.007609
    177          0.511842   1.016592
    178          0.542216   1.030133
    179          0.579275   1.031052
    180          0.589980   1.021048
    181          0.613788   0.968781
    182          0.652006   0.773114
    183          0.665296   0.674551
    184          0.679857   0.555555
    185          0.694452   0.432410
    186          0.709474   0.310667
    187          0.726374   0.190058
    188          0.748938   0.069080
    189          0.816103  -0.034736
    190          0.828698  -0.030916
    191          0.957492  -0.000430
    192          1.083110  -0.000000
    193          1.318762  -0.000000
    194          1.528152  -0.000000
    195          1.564952  -0.000000
    196          1.633979  -0.000000
    197          1.755448  -0.000000
    198          1.810425  -0.000000
    199          2.049084  -0.000000
    200          2.139238  -0.000000
    201          2.292448  -0.000000
    202          2.575935  -0.000000
    203          2.909375   0.000000
    204          3.243969   0.000000
    205          3.345180   0.000000
    206          3.463703   0.000000
    207          3.550581   0.000000
    208          3.758611   0.000000
    209          3.884168   0.000000
    210          4.190909   0.000000
    211          4.342048   0.000000
    212          4.604817   0.000000
    213          4.771202   0.000000
    214          4.987815   0.000000
    215          5.210485   0.000000
    216          5.352985   0.000000
    217          5.546775   0.000000
    218          5.684077   0.000000
    219          5.839723   0.000000
    220          5.974250   0.000000

 -0.2500000E+00  0.2500000E+00  0.1262379E-14  0.5000000E+00
      1        -13.235472   1.000000
      2         -5.757856   1.000000
      3         -5.372193   1.000000
      4         -4.926564   1.000000
      5         -4.347134   1.000000
      6         -4.273732   1.000000
      7         -4.046962   1.000000
      8         -4.016161   1.000000
      9         -3.968146   1.000000
     10         -3.830186   1.000000
     11         -3.820921   1.000000
     12         -3.803768   1.000000
     13         -3.793200   1.000000
     14         -3.755937   1.000000
     15         -3.741107   1.000000
     16         -3.675460   1.000000
     17         -3.644025   1.000000
     18         -3.628971   1.000000
     19         -3.599332   1.000000
     20         -3.578334   1.000000
     21         -3.534257   1.000000
     22         -3.508712   1.000000
     23         -3.418451   1.000000
     24         -3.407956   1.000000
     25         -3.388516   1.000000
     26         -3.364289   1.000000
     27         -3.270003   1.000000
     28         -3.257600   1.000000
     29         -3.248861   1.000000
     30         -3.230277   1.000000
     31         -3.217272   1.000000
     32         -3.181136   1.000000
     33         -3.158154   1.000000
     34         -3.119519   1.000000
     35         -3.099650   1.000000
     36         -3.044533   1.000000
     37         -3.029903   1.000000
     38         -2.973456   1.000000
     39         -2.943592   1.000000
     40         -2.923263   1.000000
     41         -2.914857   1.000000
     42         -2.904365   1.000000
     43         -2.896187   1.000000
     44         -2.881988   1.000000
     45         -2.836676   1.000000
     46         -2.785175   1.000000
     47         -2.730607   1.000000
     48         -2.650223   1.000000
     49         -2.635305   1.000000
     50         -2.617389   1.000000
     51         -2.590361   1.000000
     52         -2.565648   1.000000
     53         -2.518544   1.000000
     54         -2.486472   1.000000
     55         -2.466400   1.000000
     56         -2.456029   1.000000
     57         -2.429216   1.000000
     58         -2.415782   1.000000
     59         -2.397544   1.000000
     60         -2.369607   1.000000
     61         -2.315056   1.000000
     62         -2.276087   1.000000
     63         -2.231049   1.000000
     64         -2.195879   1.000000
     65         -2.181676   1.000000
     66         -2.142732   1.000000
     67         -2.112461   1.000000
     68         -2.076954   1.000000
     69         -2.071926   1.000000
     70         -2.038863   1.000000
     71         -1.997938   1.000000
     72         -1.978131   1.000000
     73         -1.947815   1.000000
     74         -1.900431   1.000000
     75         -1.883092   1.000000
     76         -1.841146   1.000000
     77         -1.777120   1.000000
     78         -1.764673   1.000000
     79         -1.740782   1.000000
     80         -1.735203   1.000000
     81         -1.702222   1.000000
     82         -1.693871   1.000000
     83         -1.671698   1.000000
     84         -1.664024   1.000000
     85         -1.634261   1.000000
     86         -1.626508   1.000000
     87         -1.612265   1.000000
     88         -1.588339   1.000000
     89         -1.581180   1.000000
     90         -1.569322   1.000000
     91         -1.543953   1.000000
     92         -1.503177   1.000000
     93         -1.458686   1.000000
     94         -1.453387   1.000000
     95         -1.430672   1.000000
     96         -1.407773   1.000000
     97         -1.387472   1.000000
     98         -1.379083   1.000000
     99         -1.343079   1.000000
    100         -1.320610   1.000000
    101         -1.307047   1.000000
    102         -1.264308   1.000000
    103         -1.241047   1.000000
    104         -1.205345   1.000000
    105         -1.173610   1.000000
    106         -1.108136   1.000000
    107         -1.103065   1.000000
    108         -1.069787   1.000000
    109         -1.049021   1.000000
    110         -1.036950   1.000000
    111         -0.989509   1.000000
    112         -0.957908   1.000000
    113         -0.922186   1.000000
    114         -0.876098   1.000000
    115         -0.863212   1.000000
    116         -0.847930   1.000000
    117         -0.839848   1.000000
    118         -0.820149   1.000000
    119         -0.809372   1.000000
    120         -0.788716   1.000000
    121         -0.778274   1.000000
    122         -0.763022   1.000000
    123         -0.743760   1.000000
    124         -0.729722   1.000000
    125         -0.709006   1.000000
    126         -0.686087   1.000000
    127         -0.651927   1.000000
    128         -0.645105   1.000000
    129         -0.629482   1.000000
    130         -0.602796   1.000000
    131         -0.559280   1.000000
    132         -0.530342   1.000000
    133         -0.486942   1.000000
    134         -0.470878   1.000000
    135         -0.447752   1.000000
    136         -0.433405   1.000000
    137         -0.405160   1.000000
    138         -0.398843   1.000000
    139         -0.374329   1.000000
    140         -0.352691   1.000000
    141         -0.304241   1.000000
    142         -0.272768   1.000000
    143         -0.239493   1.000000
    144         -0.214217   1.000000
    145         -0.190072   1.000000
    146         -0.175163   1.000000
    147         -0.153599   1.000000
    148         -0.138862   1.000000
    149         -0.126221   1.000000
    150         -0.088135   1.000000
    151         -0.054131   1.000000
    152         -0.007540   1.000000
    153          0.006177   1.000000
    154          0.062800   1.000000
    155          0.075538   1.000000
    156          0.098159   1.000000
    157          0.138617   1.000000
    158          0.154320   1.000000
    159          0.169151   1.000000
    160          0.182292   1.000000
    161          0.201528   1.000000
    162          0.212503   1.000000
    163          0.230647   1.000000
    164          0.244756   1.000000
    165          0.276178   1.000000
    166          0.312148   1.000001
    167          0.342597   1.000007
    168          0.370026   1.000036
    169          0.391609   1.000124
    170          0.402100   1.000218
    171          0.431045   1.000907
    172          0.436772   1.001175
    173          0.451193   1.002182
    174          0.459143   1.003005
    175          0.477368   1.005899
    176          0.482109   1.006934
    177          0.515511   1.018146
    178          0.549544   1.032845
    179          0.564345   1.035456
    180          0.598936   1.006828
    181          0.616873   0.958343
    182          0.656661   0.740025
    183          0.665871   0.670026
    184          0.679088   0.562009
    185          0.695152   0.426557
    186          0.708674   0.316873
    187          0.728407   0.177133
    188          0.749132   0.068260
    189          0.811021  -0.035391
    190          0.843660  -0.024351
    191          0.955939  -0.000464
    192          1.064911  -0.000001
    193          1.359391  -0.000000
    194          1.499054  -0.000000
    195          1.555967  -0.000000
    196          1.631210  -0.000000
    197          1.708847  -0.000000
    198          1.895695  -0.000000
    199          2.022166  -0.000000
    200          2.151108  -0.000000
    201          2.283779  -0.000000
    202          2.534579  -0.000000
    203          3.011005   0.000000
    204          3.235858   0.000000
    205          3.339812   0.000000
    206          3.455367   0.000000
    207          3.513557   0.000000
    208          3.707968   0.000000
    209          3.983971   0.000000
    210          4.176028   0.000000
    211          4.303609   0.000000
    212          4.638967   0.000000
    213          4.770153   0.000000
    214          4.936659   0.000000
    215          5.191941   0.000000
    216          5.404609   0.000000
    217          5.549442   0.000000
    218          5.797889   0.000000
    219          5.911001   0.000000
    220          5.963575   0.000000
