 running   48 mpi-ranks, with    1 threads/rank, on    1 nodes
 distrk:  each k-point on   48 cores,    1 groups
 distr:  one band on   24 cores,    2 groups
 vasp.6.4.3 19Mar24 (build Oct  2 2024 09:01:45) complex                         
 POSCAR found type information on POSCAR PdH S 
 POSCAR found :  3 types and      39 ions
 scaLAPACK will be used
 LDA part: xc-table for (Slater+PW92), standard interpolation
 POSCAR, INCAR and KPOINTS ok, starting setup
 FFT: planning ... GRIDC
 FFT: planning ... GRID_SOFT
 FFT: planning ... GRID
 WAVECAR not read
 WARNING: random wavefunctions but no delay for mixing, default for NELMDL
 entering main loop
       N       E                     dE             d eps       ncg     rms          rms(c)
DAV:   1     0.211670760717E+04    0.21167E+04   -0.14728E+05   880   0.119E+03
DAV:   2    -0.624152022316E+02   -0.21791E+04   -0.20356E+04   992   0.282E+02
DAV:   3    -0.191100598736E+03   -0.12869E+03   -0.11418E+03  1008   0.612E+01
DAV:   4    -0.196256266191E+03   -0.51557E+01   -0.50193E+01  1056   0.121E+01
DAV:   5    -0.196426939124E+03   -0.17067E+00   -0.17047E+00  1128   0.225E+00    0.382E+01
RMM:   6    -0.190016092738E+03    0.64108E+01   -0.27004E+01   901   0.123E+01    0.238E+01
RMM:   7    -0.285418631698E+03   -0.95403E+02   -0.59680E+01  1105   0.116E+01    0.654E+01
RMM:   8    -0.206131901080E+03    0.79287E+02   -0.32288E+01   971   0.101E+01    0.353E+01
RMM:   9    -0.189889240457E+03    0.16243E+02   -0.14850E+01   944   0.809E+00    0.149E+01
RMM:  10    -0.188786929099E+03    0.11023E+01   -0.76308E+00   933   0.541E+00    0.119E+01
RMM:  11    -0.188077827290E+03    0.70910E+00   -0.24891E+00   930   0.326E+00    0.809E+00
RMM:  12    -0.187952219034E+03    0.12561E+00   -0.13095E+00   936   0.233E+00    0.764E+00
RMM:  13    -0.187595564142E+03    0.35665E+00   -0.55954E-01   923   0.160E+00    0.431E+00
RMM:  14    -0.187458196953E+03    0.13737E+00   -0.18177E-01   928   0.898E-01    0.237E+00
RMM:  15    -0.187423784075E+03    0.34413E-01   -0.71005E-02   943   0.531E-01    0.191E+00
RMM:  16    -0.187403785753E+03    0.19998E-01   -0.25757E-02   950   0.315E-01    0.121E+00
RMM:  17    -0.187403331104E+03    0.45465E-03   -0.17155E-02   959   0.250E-01    0.122E+00
RMM:  18    -0.187393214892E+03    0.10116E-01   -0.17317E-02   986   0.260E-01    0.700E-01
RMM:  19    -0.187389104547E+03    0.41103E-02   -0.73867E-03   939   0.169E-01    0.351E-01
RMM:  20    -0.187388813104E+03    0.29144E-03   -0.30831E-03   941   0.103E-01    0.314E-01
RMM:  21    -0.187388074189E+03    0.73891E-03   -0.14978E-03   952   0.763E-02    0.208E-01
RMM:  22    -0.187387849131E+03    0.22506E-03   -0.12943E-03   977   0.669E-02    0.229E-01
RMM:  23    -0.187387313012E+03    0.53612E-03   -0.77773E-04   915   0.531E-02    0.977E-02
RMM:  24    -0.187387247346E+03    0.65666E-04   -0.39968E-04   721   0.366E-02
   1 F= -.18738725E+03 E0= -.18736321E+03  d E =-.721195E-01
