<?xml version="1.0" encoding="ISO-8859-1"?>
<modeling>
 <generator>
  <i name="program" type="string">vasp </i>
  <i name="version" type="string">6.4.3  </i>
  <i name="subversion" type="string">19Mar24 (build Oct  2 2024 09:01:45) complex                          parallel </i>
  <i name="platform" type="string">LinuxGNU </i>
  <i name="date" type="string">2025 02 24 </i>
  <i name="time" type="string">12:59:34 </i>
 </generator>
 <incar>
  <i type="string" name="PREC">Accurate</i>
  <i type="string" name="ALGO">Fast</i>
  <i type="int" name="ICHARG">     2</i>
  <i type="int" name="IBRION">    -1</i>
  <i name="EDIFF">      0.00010000</i>
  <i name="EDIFFG">     -0.03000000</i>
  <i type="int" name="ISYM">     0</i>
  <i name="ENCUT">    400.00000000</i>
  <i type="string" name="LREAL">Auto</i>
  <i type="int" name="ISMEAR">     1</i>
  <i name="SIGMA">      0.10000000</i>
  <i type="logical" name="LWAVE"> F  </i>
  <i type="logical" name="LCHARG"> F  </i>
  <i type="string" name="GGA">PE</i>
  <i type="logical" name="LDIPOL"> T  </i>
  <i type="int" name="IDIPOL">     3</i>
 </incar>
 <primitive_cell>
  <structure name="primitive_cell" >
   <crystal>
    <varray name="basis" >
     <v>       8.35800215       0.00000000       0.00000000 </v>
     <v>       0.00000000       8.35800215       0.00000000 </v>
     <v>       0.00000000       0.00000000      19.91000000 </v>
    </varray>
    <i name="volume">   1390.83694200 </i>
    <varray name="rec_basis" >
     <v>       0.11964582       0.00000000       0.00000000 </v>
     <v>       0.00000000       0.11964582       0.00000000 </v>
     <v>       0.00000000       0.00000000       0.05022602 </v>
    </varray>
   </crystal>
   <varray name="positions" >
    <v>       0.16666667       0.16666667       0.00000000 </v>
    <v>       0.50000000       0.16666667       0.00000000 </v>
    <v>       0.83333333       0.16666667       0.00000000 </v>
    <v>       0.16666667       0.50000000       0.00000000 </v>
    <v>       0.50000000       0.50000000       0.00000000 </v>
    <v>       0.83333333       0.50000000       0.00000000 </v>
    <v>       0.16666667       0.83333333       0.00000000 </v>
    <v>       0.50000000       0.83333333       0.00000000 </v>
    <v>       0.83333333       0.83333333       0.00000000 </v>
    <v>       0.00000000       0.00000000       0.09894525 </v>
    <v>       0.33333333       0.00000000       0.09894525 </v>
    <v>       0.66666667       0.00000000       0.09894525 </v>
    <v>       0.00000000       0.33333333       0.09894525 </v>
    <v>       0.33333333       0.33333333       0.09894525 </v>
    <v>       0.66666667       0.33333333       0.09894525 </v>
    <v>       0.00000000       0.66666667       0.09894525 </v>
    <v>       0.33333333       0.66666667       0.09894525 </v>
    <v>       0.66666667       0.66666667       0.09894525 </v>
    <v>       0.17321675       0.16435468       0.19910850 </v>
    <v>       0.50034157       0.16515895       0.19818418 </v>
    <v>       0.83635674       0.16496310       0.19532616 </v>
    <v>       0.17012738       0.49705656       0.19783172 </v>
    <v>       0.49973883       0.49537940       0.19872336 </v>
    <v>       0.83637327       0.50199064       0.19660576 </v>
    <v>       0.16805772       0.83005574       0.19794017 </v>
    <v>       0.49926916       0.83069409       0.19859890 </v>
    <v>       0.83408803       0.83456911       0.19753210 </v>
    <v>       0.00010519       0.99970548       0.29600365 </v>
    <v>       0.33300182       0.99173400       0.29708124 </v>
    <v>       0.66740920       0.00007797       0.29628751 </v>
    <v>       0.00863933       0.33050343       0.29484553 </v>
    <v>       0.34971297       0.31251775       0.30205560 </v>
    <v>       0.68479579       0.33514513       0.29449766 </v>
    <v>       0.99757799       0.66537433       0.29691851 </v>
    <v>       0.33273269       0.66737477       0.30066998 </v>
    <v>       0.66940378       0.66825272       0.29590622 </v>
    <v>       0.55530668       0.27321312       0.34777612 </v>
    <v>       0.49490038       0.51488536       0.40200139 </v>
    <v>       0.33730368       0.49396865       0.38839845 </v>
   </varray>
  </structure>
  <varray name="primitive_index" >
   <v type="int" >        1 </v>
   <v type="int" >        2 </v>
   <v type="int" >        3 </v>
   <v type="int" >        4 </v>
   <v type="int" >        5 </v>
   <v type="int" >        6 </v>
   <v type="int" >        7 </v>
   <v type="int" >        8 </v>
   <v type="int" >        9 </v>
   <v type="int" >       10 </v>
   <v type="int" >       11 </v>
   <v type="int" >       12 </v>
   <v type="int" >       13 </v>
   <v type="int" >       14 </v>
   <v type="int" >       15 </v>
   <v type="int" >       16 </v>
   <v type="int" >       17 </v>
   <v type="int" >       18 </v>
   <v type="int" >       19 </v>
   <v type="int" >       20 </v>
   <v type="int" >       21 </v>
   <v type="int" >       22 </v>
   <v type="int" >       23 </v>
   <v type="int" >       24 </v>
   <v type="int" >       25 </v>
   <v type="int" >       26 </v>
   <v type="int" >       27 </v>
   <v type="int" >       28 </v>
   <v type="int" >       29 </v>
   <v type="int" >       30 </v>
   <v type="int" >       31 </v>
   <v type="int" >       32 </v>
   <v type="int" >       33 </v>
   <v type="int" >       34 </v>
   <v type="int" >       35 </v>
   <v type="int" >       36 </v>
   <v type="int" >       37 </v>
   <v type="int" >       38 </v>
   <v type="int" >       39 </v>
  </varray>
 </primitive_cell>
 <kpoints>
  <generation param="Monkhorst-Pack">
   <v type="int" name="divisions">       2        2        1 </v>
   <v name="usershift">      0.00000000       0.00000000       0.00000000 </v>
   <v name="genvec1">      0.50000000       0.00000000       0.00000000 </v>
   <v name="genvec2">      0.00000000       0.50000000       0.00000000 </v>
   <v name="genvec3">      0.00000000       0.00000000       1.00000000 </v>
   <v name="shift">      0.50000000       0.50000000       0.00000000 </v>
  </generation>
  <varray name="kpointlist" >
   <v>       0.25000000       0.25000000       0.00000000 </v>
   <v>      -0.25000000       0.25000000       0.00000000 </v>
  </varray>
  <varray name="weights" >
   <v>       0.50000000 </v>
   <v>       0.50000000 </v>
  </varray>
 </kpoints>
 <parameters>
  <separator name="general" >
   <i type="string" name="SYSTEM">unknown system</i>
   <i type="logical" name="LCOMPAT"> F  </i>
  </separator>
  <separator name="electronic" >
   <i type="string" name="PREC">accura</i>
   <i name="ENMAX">    400.00000000</i>
   <i name="ENAUG">    416.23000000</i>
   <i name="EDIFF">      0.00010000</i>
   <i type="int" name="IALGO">    68</i>
   <i type="int" name="IWAVPR">    10</i>
   <i type="int" name="NBANDS">   220</i>
   <i type="int" name="NBANDSLOW">    -1</i>
   <i type="int" name="NBANDSHIGH">    -1</i>
   <i name="NELECT">    368.00000000</i>
   <i type="int" name="TURBO">     0</i>
   <i type="int" name="IRESTART">     0</i>
   <i type="int" name="NREBOOT">     0</i>
   <i type="int" name="NMIN">     0</i>
   <i name="EREF">      0.00000000</i>
   <separator name="electronic smearing" >
    <i type="int" name="ISMEAR">     1</i>
    <i name="SIGMA">      0.10000000</i>
    <i name="KSPACING">      0.50000000</i>
    <i type="logical" name="KGAMMA"> T  </i>
    <i type="logical" name="KBLOWUP"> T  </i>
   </separator>
   <separator name="electronic projectors" >
    <i type="logical" name="LREAL"> T  </i>
    <v name="ROPT">     -0.00025000     -0.00025000     -0.00025000</v>
    <i type="int" name="LMAXPAW">  -100</i>
    <i type="int" name="LMAXMIX">     2</i>
    <i type="logical" name="NLSPLINE"> F  </i>
   </separator>
   <separator name="electronic startup" >
    <i type="int" name="ISTART">     0</i>
    <i type="int" name="ICHARG">     2</i>
    <i type="int" name="INIWAV">     1</i>
   </separator>
   <separator name="electronic spin" >
    <i type="int" name="ISPIN">     1</i>
    <i type="logical" name="LNONCOLLINEAR"> F  </i>
    <v name="MAGMOM">      1.00000000      1.00000000      1.00000000      1.00000000      1.00000000      1.00000000      1.00000000      1.00000000      1.00000000      1.00000000      1.00000000      1.00000000      1.00000000      1.00000000      1.00000000      1.00000000      1.00000000      1.00000000      1.00000000      1.00000000
      1.00000000      1.00000000      1.00000000      1.00000000      1.00000000      1.00000000      1.00000000      1.00000000      1.00000000      1.00000000      1.00000000      1.00000000      1.00000000      1.00000000      1.00000000      1.00000000      1.00000000      1.00000000      1.00000000</v>
    <i name="NUPDOWN">     -1.00000000</i>
    <i type="logical" name="LSORBIT"> F  </i>
    <v name="SAXIS">      0.00000000      0.00000000      1.00000000</v>
    <i type="logical" name="LSPIRAL"> F  </i>
    <v name="QSPIRAL">      0.00000000      0.00000000      0.00000000</v>
    <i type="logical" name="LZEROZ"> F  </i>
   </separator>
   <separator name="electronic exchange-correlation" >
    <i type="logical" name="LASPH"> F  </i>
   </separator>
   <separator name="electronic convergence" >
    <i type="int" name="NELM">    60</i>
    <i type="int" name="NELMDL">     0</i>
    <i type="int" name="NELMIN">     2</i>
    <i name="ENINI">    400.00000000</i>
    <separator name="electronic convergence detail" >
     <i type="logical" name="LDIAG"> T  </i>
     <i type="logical" name="LSUBROT"> F  </i>
     <i name="WEIMIN">      0.00000000</i>
     <i name="EBREAK">      0.00000011</i>
     <i name="DEPER">      0.30000000</i>
     <i type="int" name="NRMM">     4</i>
     <i name="TIME">      0.40000000</i>
    </separator>
   </separator>
   <separator name="electronic mixer" >
    <i name="AMIX">      0.40000000</i>
    <i name="BMIX">      1.00000000</i>
    <i name="AMIN">      0.10000000</i>
    <i name="AMIX_MAG">      1.60000000</i>
    <i name="BMIX_MAG">      1.00000000</i>
    <separator name="electronic mixer details" >
     <i type="int" name="IMIX">     4</i>
     <i type="logical" name="MIXFIRST"> F  </i>
     <i type="int" name="MAXMIX">   -45</i>
     <i name="WC">    100.00000000</i>
     <i type="int" name="INIMIX">     1</i>
     <i type="int" name="MIXPRE">     1</i>
     <i type="int" name="MREMOVE">     5</i>
    </separator>
   </separator>
   <separator name="electronic dipolcorrection" >
    <i type="logical" name="LDIPOL"> T  </i>
    <i type="logical" name="LMONO"> F  </i>
    <i type="int" name="IDIPOL">     3</i>
    <i name="EPSILON">      1.00000000</i>
    <v name="DIPOL">   -100.00000000   -100.00000000   -100.00000000</v>
    <i name="EFIELD">      0.00000000</i>
    <i type="logical" name="LVACPOTAV"> F  </i>
   </separator>
  </separator>
  <separator name="grids" >
   <i type="int" name="NGX">    56</i>
   <i type="int" name="NGY">    56</i>
   <i type="int" name="NGZ">   140</i>
   <i type="int" name="NGXF">   112</i>
   <i type="int" name="NGYF">   112</i>
   <i type="int" name="NGZF">   280</i>
   <i type="logical" name="ADDGRID"> F  </i>
  </separator>
  <separator name="ionic" >
   <i type="int" name="NSW">     0</i>
   <i type="int" name="IBRION">    -1</i>
   <i type="int" name="MDALGO">     0</i>
   <i type="int" name="ISIF">     2</i>
   <i name="PSTRESS">      0.00000000</i>
   <i name="EDIFFG">     -0.03000000</i>
   <i type="int" name="NFREE">     0</i>
   <i name="POTIM">      0.50000000</i>
   <i name="SMASS">     -3.00000000</i>
   <i name="SCALEE">      1.00000000</i>
  </separator>
  <separator name="ionic md" >
   <i name="TEBEG">      0.00010000</i>
   <i name="TEEND">      0.00010000</i>
   <i type="int" name="NBLOCK">     1</i>
   <i type="int" name="KBLOCK">     1</i>
   <i type="int" name="NPACO">   256</i>
   <i name="APACO">     10.00000000</i>
  </separator>
  <separator name="symmetry" >
   <i type="int" name="ISYM">     0</i>
   <i name="SYMPREC">      0.00001000</i>
  </separator>
  <separator name="dos" >
   <i type="int" name="LORBIT">     0</i>
   <v name="RWIGS">     -1.00000000     -1.00000000     -1.00000000</v>
   <i type="int" name="NEDOS">   301</i>
   <i name="EMIN">     10.00000000</i>
   <i name="EMAX">    -10.00000000</i>
   <i name="EFERMI">      0.00000000</i>
  </separator>
  <separator name="writing" >
   <i type="int" name="NWRITE">     2</i>
   <i type="logical" name="LWAVE"> F  </i>
   <i type="logical" name="LDOWNSAMPLE"> F  </i>
   <i type="logical" name="LCHARG"> F  </i>
   <i type="logical" name="LPARD"> F  </i>
   <i type="logical" name="LVTOT"> F  </i>
   <i type="logical" name="LVHAR"> F  </i>
   <i type="logical" name="LELF"> F  </i>
   <i type="logical" name="LOPTICS"> F  </i>
   <v name="STM">      0.00000000      0.00000000      0.00000000      0.00000000      0.00000000      0.00000000      0.00000000</v>
  </separator>
  <separator name="performance" >
   <i type="int" name="NPAR">     2</i>
   <i type="int" name="NSIM">     4</i>
   <i type="int" name="NBLK">    -1</i>
   <i type="logical" name="LPLANE"> T  </i>
   <i type="logical" name="LSCALAPACK"> T  </i>
   <i type="logical" name="LSCAAWARE"> F  </i>
   <i type="logical" name="LSCALU"> F  </i>
   <i type="logical" name="LASYNC"> F  </i>
   <i type="logical" name="LORBITALREAL"> F  </i>
  </separator>
  <separator name="miscellaneous" >
   <i type="int" name="IDIOT">     3</i>
   <i type="int" name="PHON_NSTRUCT">    -1</i>
   <i type="logical" name="LMUSIC"> F  </i>
   <v name="POMASS">    106.42000000      1.00000000     32.06600000</v>
   <v name="DARWINR">      0.00000000      0.00000000      0.00000000</v>
   <v name="DARWINV">      1.00000000      1.00000000      1.00000000</v>
   <i type="logical" name="LCORR"> T  </i>
  </separator>
  <i type="logical" name="GGA_COMPAT"> T  </i>
  <i type="logical" name="LBERRY"> F  </i>
  <i type="int" name="ICORELEVEL">     0</i>
  <i type="logical" name="LDAU"> F  </i>
  <i type="int" name="I_CONSTRAINED_M">     0</i>
  <separator name="electronic exchange-correlation" >
   <i type="string" name="GGA    ">PE</i>
   <i type="string" name="XC_C">1</i>
   <i type="int" name="VOSKOWN">     0</i>
   <i type="logical" name="LHFCALC"> F  </i>
   <i type="string" name="PRECFOCK"></i>
   <i type="logical" name="LSYMGRAD"> F  </i>
   <i type="logical" name="LHFONE"> F  </i>
   <i type="logical" name="LRHFCALC"> F  </i>
   <i type="logical" name="LTHOMAS"> F  </i>
   <i type="logical" name="LMODELHF"> F  </i>
   <i type="logical" name="LFOCKACE"> F  </i>
   <i name="ENCUT4O">     -1.00000000</i>
   <i type="int" name="EXXOEP">     0</i>
   <i type="int" name="FOURORBIT">     0</i>
   <i name="AEXX">      0.00000000</i>
   <i name="HFALPHA">      0.00000000</i>
   <i name="MCALPHA">      0.00000000</i>
   <i name="ALDAX">      1.00000000</i>
   <i name="AGGAX">      1.00000000</i>
   <i name="AMGGAX">      1.00000000</i>
   <i name="ALDAC">      1.00000000</i>
   <i name="AGGAC">      1.00000000</i>
   <i name="AMGGAC">      1.00000000</i>
   <i type="int" name="NKREDX">     1</i>
   <i type="int" name="NKREDY">     1</i>
   <i type="int" name="NKREDZ">     1</i>
   <i type="logical" name="SHIFTRED"> F  </i>
   <i type="logical" name="ODDONLY"> F  </i>
   <i type="logical" name="EVENONLY"> F  </i>
   <i type="int" name="LMAXFOCK">     0</i>
   <i type="int" name="NMAXFOCKAE">     0</i>
   <i type="logical" name="LFOCKAEDFT"> F  </i>
   <i name="HFSCREEN">      0.00000000</i>
   <i name="HFSCREENC">      0.00000000</i>
   <i type="int" name="NBANDSGWLOW">     0</i>
  </separator>
  <separator name="vdW DFT" >
   <i type="logical" name="LUSE_VDW"> F  </i>
   <i type="int" name="IVDW_NL">    -1</i>
   <i type="logical" name="LSPIN_VDW"> F  </i>
   <i name="ZAB_VDW">     -0.84910000</i>
   <i name="GAMMA_VDW">      1.39626340</i>
   <i name="ALPHA_VDW">      0.00000000</i>
   <i name="PARAM1">      0.12340000</i>
   <i name="PARAM2">      1.00000000</i>
   <i name="BPARAM">      6.30000000</i>
   <i name="CPARAM">      0.00930000</i>
  </separator>
  <separator name="model GW" >
   <i type="int" name="MODEL_GW">     0</i>
   <i name="MODEL_EPS0">     21.39749142</i>
   <i name="MODEL_ALPHA">      1.00000000</i>
  </separator>
  <separator name="linear response parameters" >
   <i type="logical" name="LEPSILON"> F  </i>
   <i type="logical" name="LRPA"> F  </i>
   <i type="logical" name="LNABLA"> F  </i>
   <i type="logical" name="LVEL"> F  </i>
   <i name="CSHIFT">      0.10000000</i>
   <i name="OMEGAMAX">     -1.00000000</i>
   <i name="DEG_THRESHOLD">      0.00200000</i>
   <i name="RTIME">     -0.10000000</i>
   <i name="WPLASMAI">      0.00000000</i>
   <v name="DFIELD">      0.00000000      0.00000000      0.00000000</v>
   <v name="WPLASMA">      0.00000000      0.00000000      0.00000000      0.00000000      0.00000000      0.00000000      0.00000000      0.00000000      0.00000000</v>
  </separator>
  <separator name="orbital magnetization" >
   <i type="logical" name="NUCIND"> F  </i>
   <v name="MAGPOS">      0.00000000      0.00000000      0.00000000</v>
   <i type="logical" name="LNICSALL"> T  </i>
   <i type="logical" name="ORBITALMAG"> F  </i>
   <i type="logical" name="LMAGBLOCH"> F  </i>
   <i type="logical" name="LCHIMAG"> F  </i>
   <i type="logical" name="LGAUGE"> T  </i>
   <i type="int" name="MAGATOM">     0</i>
   <v name="MAGDIPOL">      0.00000000      0.00000000      0.00000000</v>
   <v name="AVECCONST">      0.00000000      0.00000000      0.00000000</v>
  </separator>
  <separator name="response functions" >
   <i type="logical" name="LALL_IN_ONE"> F  </i>
   <i type="int" name="IALL_IN_ONE">    -1</i>
   <i type="int" name="NBANDS_WAVE">    -1</i>
   <i type="logical" name="LFINITE_TEMPERATURE"> F  </i>
   <i type="logical" name="LADDER"> F  </i>
   <i type="logical" name="LRPAFORCE"> F  </i>
   <i type="logical" name="LFXC"> F  </i>
   <i type="logical" name="LHARTREE"> T  </i>
   <i type="int" name="IBSE">     0</i>
   <v type="int" name="KPOINT">    -1     0     0     0</v>
   <i type="logical" name="LTCTC"> F  </i>
   <i type="logical" name="LTCTE"> F  </i>
   <i type="logical" name="LTETE"> F  </i>
   <i type="logical" name="LTRIPLET"> F  </i>
   <i type="logical" name="LFXCEPS"> F  </i>
   <i type="logical" name="LFXHEG"> F  </i>
   <i type="int" name="NATURALO">     2</i>
   <i type="logical" name="LHOLEGF"> F  </i>
   <i type="logical" name="L2ORDER"> F  </i>
   <i type="logical" name="LDMP1"> F  </i>
   <i type="logical" name="LMP2LT"> F  </i>
   <i type="logical" name="LSMP2LT"> F  </i>
   <i type="logical" name="LGWLF"> F  </i>
   <i name="ENCUTGW">     -1.60000002</i>
   <i name="ENCUTGWSOFT">     -1.60000002</i>
   <i name="ENCUTLF">     -1.00000000</i>
   <i type="logical" name="ESF_SPLINES"> F  </i>
   <i name="ESF_CONV">      0.01000000</i>
   <i type="int" name="ESF_NINTER">    15</i>
   <i type="int" name="LMAXMP2">    -1</i>
   <i name="SCISSOR">      0.00000000</i>
   <i type="int" name="NOMEGA">     0</i>
   <i type="int" name="NOMEGAR">     0</i>
   <i type="int" name="NBANDSGW">    -1</i>
   <i type="int" name="NBANDSO">    -1</i>
   <i type="int" name="NBANDSV">    -1</i>
   <i type="int" name="NELMGW">     1</i>
   <i type="int" name="NELMHF">     1</i>
   <i type="int" name="DIM">     3</i>
   <i type="int" name="IESPILON">     4</i>
   <i type="int" name="ANTIRES">     0</i>
   <i name="OMEGAMAX">    -30.00000000</i>
   <i name="OMEGAMIN">    -30.00000000</i>
   <i name="OMEGATL">   -200.00000000</i>
   <i type="int" name="OMEGAGRID">     0</i>
   <i name="CSHIFT">     -0.10000000</i>
   <i type="logical" name="LSELFENERGY"> F  </i>
   <i type="logical" name="LSPECTRAL"> F  </i>
   <i type="logical" name="LSPECTRALGW"> F  </i>
   <i type="logical" name="LSINGLES"> F  </i>
   <i type="logical" name="LFERMIGW"> F  </i>
   <i type="logical" name="ODDONLYGW"> F  </i>
   <i type="logical" name="EVENONLYGW"> F  </i>
   <i type="int" name="NKREDLFX">     1</i>
   <i type="int" name="NKREDLFY">     1</i>
   <i type="int" name="NKREDLFZ">     1</i>
   <i type="int" name="MAXMEM">  2800</i>
   <i type="int" name="TELESCOPE">     0</i>
   <i type="int" name="NTAUPAR">    -1</i>
   <i type="int" name="NOMEGAPAR">    -1</i>
   <i name="DAMP_NEWTON">      0.80000001</i>
   <i name="LAMBDA">      1.00000000</i>
  </separator>
  <separator name="External order field" >
   <i name="OFIELD_KAPPA">      0.00000000</i>
   <v name="OFIELD_K">      0.00000000      0.00000000      0.00000000</v>
   <i name="OFIELD_Q6_NEAR">      0.00000000</i>
   <i name="OFIELD_Q6_FAR">      0.00000000</i>
   <i name="OFIELD_A">      0.00000000</i>
  </separator>
  <separator name="optional k-points parameters" >
   <i type="int" name="KPOINTS_OPT_MODE">     1</i>
   <i type="logical" name="LKPOINTS_OPT"> F  </i>
  </separator>
 </parameters>
 <atominfo>
  <atoms>      39 </atoms>
  <types>       3 </types>
  <array name="atoms" >
   <dimension dim="1">ion</dimension>
   <field type="string">element</field>
   <field type="int">atomtype</field>
   <set>
    <rc><c>Pd</c><c>   1</c></rc>
    <rc><c>Pd</c><c>   1</c></rc>
    <rc><c>Pd</c><c>   1</c></rc>
    <rc><c>Pd</c><c>   1</c></rc>
    <rc><c>Pd</c><c>   1</c></rc>
    <rc><c>Pd</c><c>   1</c></rc>
    <rc><c>Pd</c><c>   1</c></rc>
    <rc><c>Pd</c><c>   1</c></rc>
    <rc><c>Pd</c><c>   1</c></rc>
    <rc><c>Pd</c><c>   1</c></rc>
    <rc><c>Pd</c><c>   1</c></rc>
    <rc><c>Pd</c><c>   1</c></rc>
    <rc><c>Pd</c><c>   1</c></rc>
    <rc><c>Pd</c><c>   1</c></rc>
    <rc><c>Pd</c><c>   1</c></rc>
    <rc><c>Pd</c><c>   1</c></rc>
    <rc><c>Pd</c><c>   1</c></rc>
    <rc><c>Pd</c><c>   1</c></rc>
    <rc><c>Pd</c><c>   1</c></rc>
    <rc><c>Pd</c><c>   1</c></rc>
    <rc><c>Pd</c><c>   1</c></rc>
    <rc><c>Pd</c><c>   1</c></rc>
    <rc><c>Pd</c><c>   1</c></rc>
    <rc><c>Pd</c><c>   1</c></rc>
    <rc><c>Pd</c><c>   1</c></rc>
    <rc><c>Pd</c><c>   1</c></rc>
    <rc><c>Pd</c><c>   1</c></rc>
    <rc><c>Pd</c><c>   1</c></rc>
    <rc><c>Pd</c><c>   1</c></rc>
    <rc><c>Pd</c><c>   1</c></rc>
    <rc><c>Pd</c><c>   1</c></rc>
    <rc><c>Pd</c><c>   1</c></rc>
    <rc><c>Pd</c><c>   1</c></rc>
    <rc><c>Pd</c><c>   1</c></rc>
    <rc><c>Pd</c><c>   1</c></rc>
    <rc><c>Pd</c><c>   1</c></rc>
    <rc><c>H </c><c>   2</c></rc>
    <rc><c>H </c><c>   2</c></rc>
    <rc><c>S </c><c>   3</c></rc>
   </set>
  </array>
  <array name="atomtypes" >
   <dimension dim="1">type</dimension>
   <field type="int">atomspertype</field>
   <field type="string">element</field>
   <field>mass</field>
   <field>valence</field>
   <field type="string">pseudopotential</field>
   <set>
    <rc><c>  36</c><c>Pd</c><c>    106.42000000</c><c>     10.00000000</c><c>  PAW_PBE Pd 04Jan2005                  </c></rc>
    <rc><c>   2</c><c>H </c><c>      1.00000000</c><c>      1.00000000</c><c>  PAW_PBE H 15Jun2001                   </c></rc>
    <rc><c>   1</c><c>S </c><c>     32.06600000</c><c>      6.00000000</c><c>  PAW_PBE S 06Sep2000                   </c></rc>
   </set>
  </array>
 </atominfo>
 <structure name="initialpos" >
  <crystal>
   <varray name="basis" >
    <v>       8.35800215       0.00000000       0.00000000 </v>
    <v>       0.00000000       8.35800215       0.00000000 </v>
    <v>       0.00000000       0.00000000      19.91000000 </v>
   </varray>
   <i name="volume">   1390.83694200 </i>
   <varray name="rec_basis" >
    <v>       0.11964582       0.00000000       0.00000000 </v>
    <v>       0.00000000       0.11964582       0.00000000 </v>
    <v>       0.00000000       0.00000000       0.05022602 </v>
   </varray>
  </crystal>
  <varray name="positions" >
   <v>       0.16666667       0.16666667       0.00000000 </v>
   <v>       0.50000000       0.16666667       0.00000000 </v>
   <v>       0.83333333       0.16666667       0.00000000 </v>
   <v>       0.16666667       0.50000000       0.00000000 </v>
   <v>       0.50000000       0.50000000       0.00000000 </v>
   <v>       0.83333333       0.50000000       0.00000000 </v>
   <v>       0.16666667       0.83333333       0.00000000 </v>
   <v>       0.50000000       0.83333333       0.00000000 </v>
   <v>       0.83333333       0.83333333       0.00000000 </v>
   <v>       0.00000000       0.00000000       0.09894525 </v>
   <v>       0.33333333       0.00000000       0.09894525 </v>
   <v>       0.66666667       0.00000000       0.09894525 </v>
   <v>       0.00000000       0.33333333       0.09894525 </v>
   <v>       0.33333333       0.33333333       0.09894525 </v>
   <v>       0.66666667       0.33333333       0.09894525 </v>
   <v>       0.00000000       0.66666667       0.09894525 </v>
   <v>       0.33333333       0.66666667       0.09894525 </v>
   <v>       0.66666667       0.66666667       0.09894525 </v>
   <v>       0.17321675       0.16435468       0.19910850 </v>
   <v>       0.50034157       0.16515895       0.19818418 </v>
   <v>       0.83635674       0.16496310       0.19532616 </v>
   <v>       0.17012738       0.49705656       0.19783172 </v>
   <v>       0.49973883       0.49537940       0.19872336 </v>
   <v>       0.83637327       0.50199064       0.19660576 </v>
   <v>       0.16805772       0.83005574       0.19794017 </v>
   <v>       0.49926916       0.83069409       0.19859890 </v>
   <v>       0.83408803       0.83456911       0.19753210 </v>
   <v>       0.00010519       0.99970548       0.29600365 </v>
   <v>       0.33300182       0.99173400       0.29708124 </v>
   <v>       0.66740920       0.00007797       0.29628751 </v>
   <v>       0.00863933       0.33050343       0.29484553 </v>
   <v>       0.34971297       0.31251775       0.30205560 </v>
   <v>       0.68479579       0.33514513       0.29449766 </v>
   <v>       0.99757799       0.66537433       0.29691851 </v>
   <v>       0.33273269       0.66737477       0.30066998 </v>
   <v>       0.66940378       0.66825272       0.29590622 </v>
   <v>       0.55530668       0.27321312       0.34777612 </v>
   <v>       0.49490038       0.51488536       0.40200139 </v>
   <v>       0.33730368       0.49396865       0.38839845 </v>
  </varray>
  <varray name="selective"  type="logical" >
   <v type="logical" >  F  F  F </v>
   <v type="logical" >  F  F  F </v>
   <v type="logical" >  F  F  F </v>
   <v type="logical" >  F  F  F </v>
   <v type="logical" >  F  F  F </v>
   <v type="logical" >  F  F  F </v>
   <v type="logical" >  F  F  F </v>
   <v type="logical" >  F  F  F </v>
   <v type="logical" >  F  F  F </v>
   <v type="logical" >  F  F  F </v>
   <v type="logical" >  F  F  F </v>
   <v type="logical" >  F  F  F </v>
   <v type="logical" >  F  F  F </v>
   <v type="logical" >  F  F  F </v>
   <v type="logical" >  F  F  F </v>
   <v type="logical" >  F  F  F </v>
   <v type="logical" >  F  F  F </v>
   <v type="logical" >  F  F  F </v>
   <v type="logical" >  T  T  T </v>
   <v type="logical" >  T  T  T </v>
   <v type="logical" >  T  T  T </v>
   <v type="logical" >  T  T  T </v>
   <v type="logical" >  T  T  T </v>
   <v type="logical" >  T  T  T </v>
   <v type="logical" >  T  T  T </v>
   <v type="logical" >  T  T  T </v>
   <v type="logical" >  T  T  T </v>
   <v type="logical" >  T  T  T </v>
   <v type="logical" >  T  T  T </v>
   <v type="logical" >  T  T  T </v>
   <v type="logical" >  T  T  T </v>
   <v type="logical" >  T  T  T </v>
   <v type="logical" >  T  T  T </v>
   <v type="logical" >  T  T  T </v>
   <v type="logical" >  T  T  T </v>
   <v type="logical" >  T  T  T </v>
   <v type="logical" >  T  T  T </v>
   <v type="logical" >  T  T  T </v>
   <v type="logical" >  T  T  T </v>
  </varray>
  <nose>
   <v>      -3.00000000       0.00000000       0.00010000       0.00010000 </v>
  </nose>
 </structure>
 <calculation>
  <scstep>
   <time name="dav">    0.96    0.97</time>
   <time name="total">    1.02    1.02</time>
   <dipole>
    <v name="dipole">      0.00000000       0.00000000      -0.00005186 </v>
    <i name="Tr[quadrupol]">  -4558.32469844 </i>
    <i name="Echarged">      0.00000000 </i>
    <i name="Edipol_quadrupol">      0.00000000 </i>
    <i name="Eion">      0.00000000 </i>
   </dipole>
   <energy>
    <i name="alphaZ">    628.75265062 </i>
    <i name="ewald">  75672.51956099 </i>
    <i name="hartreedc">-106404.63233118 </i>
    <i name="XCdc">  -1046.22238786 </i>
    <i name="pawpsdc">  29264.33151030 </i>
    <i name="pawaedc"> -27021.15649540 </i>
    <i name="eentropy">     -0.02027091 </i>
    <i name="bandstr">   1570.57956967 </i>
    <i name="atom">  29452.55580095 </i>
    <i name="e_fr_energy">   2116.70760717 </i>
    <i name="e_wo_entrp">   2116.72787808 </i>
    <i name="e_0_energy">   2116.71436414 </i>
   </energy>
  </scstep>
  <scstep>
   <time name="dav">    0.99    0.99</time>
   <time name="total">    0.99    1.00</time>
   <dipole>
    <v name="dipole">      0.00000000       0.00000000      -0.00005186 </v>
    <i name="Tr[quadrupol]">  -4558.32469844 </i>
    <i name="Echarged">      0.00000000 </i>
    <i name="Edipol_quadrupol">      0.00000000 </i>
    <i name="Eion">      0.00000000 </i>
   </dipole>
   <energy>
    <i name="e_fr_energy">    -62.41520223 </i>
    <i name="e_wo_entrp">    -62.40807680 </i>
    <i name="e_0_energy">    -62.41282709 </i>
   </energy>
  </scstep>
  <scstep>
   <time name="dav">    1.00    1.00</time>
   <time name="total">    1.00    1.01</time>
   <dipole>
    <v name="dipole">      0.00000000       0.00000000      -0.00005186 </v>
    <i name="Tr[quadrupol]">  -4558.32469844 </i>
    <i name="Echarged">      0.00000000 </i>
    <i name="Edipol_quadrupol">      0.00000000 </i>
    <i name="Eion">      0.00000000 </i>
   </dipole>
   <energy>
    <i name="e_fr_energy">   -191.10059874 </i>
    <i name="e_wo_entrp">   -191.03161533 </i>
    <i name="e_0_energy">   -191.07760427 </i>
   </energy>
  </scstep>
  <scstep>
   <time name="dav">    1.03    1.04</time>
   <time name="total">    1.04    1.04</time>
   <dipole>
    <v name="dipole">      0.00000000       0.00000000      -0.00005186 </v>
    <i name="Tr[quadrupol]">  -4558.32469844 </i>
    <i name="Echarged">      0.00000000 </i>
    <i name="Edipol_quadrupol">      0.00000000 </i>
    <i name="Eion">      0.00000000 </i>
   </dipole>
   <energy>
    <i name="e_fr_energy">   -196.25626619 </i>
    <i name="e_wo_entrp">   -196.18422870 </i>
    <i name="e_0_energy">   -196.23225369 </i>
   </energy>
  </scstep>
  <scstep>
   <time name="dav">    1.08    1.09</time>
   <time name="total">    1.13    1.14</time>
   <dipole>
    <v name="dipole">      0.00000000       0.00000000      -0.00005186 </v>
    <i name="Tr[quadrupol]">  -4558.32469844 </i>
    <i name="Echarged">      0.00000000 </i>
    <i name="Edipol_quadrupol">      0.00000000 </i>
    <i name="Eion">      0.00000000 </i>
   </dipole>
   <energy>
    <i name="e_fr_energy">   -196.42693912 </i>
    <i name="e_wo_entrp">   -196.35497383 </i>
    <i name="e_0_energy">   -196.40295069 </i>
   </energy>
  </scstep>
  <scstep>
   <time name="diag">    0.15    0.15</time>
   <time name="diis">    0.52    0.53</time>
   <time name="orth">    0.02    0.02</time>
   <time name="total">    0.78    0.79</time>
   <dipole>
    <v name="dipole">      0.00000000       0.00000000      -0.26828651 </v>
    <i name="Tr[quadrupol]">  -4561.70384506 </i>
    <i name="Echarged">      0.00000000 </i>
    <i name="Edipol_quadrupol">      0.00000000 </i>
    <i name="Eion">      0.00000000 </i>
   </dipole>
   <energy>
    <i name="e_fr_energy">   -190.01609274 </i>
    <i name="e_wo_entrp">   -189.99211283 </i>
    <i name="e_0_energy">   -190.00809943 </i>
   </energy>
  </scstep>
  <scstep>
   <time name="diag">    0.15    0.15</time>
   <time name="diis">    0.63    0.64</time>
   <time name="orth">    0.02    0.02</time>
   <time name="total">    0.89    0.90</time>
   <dipole>
    <v name="dipole">      0.00000000       0.00000000       2.44005564 </v>
    <i name="Tr[quadrupol]">  -4564.35924580 </i>
    <i name="Echarged">      0.00000000 </i>
    <i name="Edipol_quadrupol">      0.00000000 </i>
    <i name="Eion">      0.00000000 </i>
   </dipole>
   <energy>
    <i name="e_fr_energy">   -285.41863170 </i>
    <i name="e_wo_entrp">   -285.42743302 </i>
    <i name="e_0_energy">   -285.42156547 </i>
   </energy>
  </scstep>
  <scstep>
   <time name="diag">    0.15    0.15</time>
   <time name="diis">    0.56    0.56</time>
   <time name="orth">    0.02    0.02</time>
   <time name="total">    0.81    0.82</time>
   <dipole>
    <v name="dipole">      0.00000000       0.00000000       0.17205771 </v>
    <i name="Tr[quadrupol]">  -4567.20723483 </i>
    <i name="Echarged">      0.00000000 </i>
    <i name="Edipol_quadrupol">      0.00000000 </i>
    <i name="Eion">      0.00000000 </i>
   </dipole>
   <energy>
    <i name="e_fr_energy">   -206.13190108 </i>
    <i name="e_wo_entrp">   -206.14539258 </i>
    <i name="e_0_energy">   -206.13639825 </i>
   </energy>
  </scstep>
  <scstep>
   <time name="diag">    0.15    0.15</time>
   <time name="diis">    0.54    0.55</time>
   <time name="orth">    0.02    0.02</time>
   <time name="total">    0.80    0.80</time>
   <dipole>
    <v name="dipole">      0.00000000       0.00000000       0.03102077 </v>
    <i name="Tr[quadrupol]">  -4564.85334824 </i>
    <i name="Echarged">      0.00000000 </i>
    <i name="Edipol_quadrupol">      0.00000000 </i>
    <i name="Eion">      0.00000000 </i>
   </dipole>
   <energy>
    <i name="e_fr_energy">   -189.88924046 </i>
    <i name="e_wo_entrp">   -189.87510266 </i>
    <i name="e_0_energy">   -189.88452786 </i>
   </energy>
  </scstep>
  <scstep>
   <time name="diag">    0.15    0.15</time>
   <time name="diis">    0.54    0.54</time>
   <time name="orth">    0.02    0.02</time>
   <time name="total">    0.80    0.80</time>
   <dipole>
    <v name="dipole">      0.00000000       0.00000000      -0.14049717 </v>
    <i name="Tr[quadrupol]">  -4564.94868187 </i>
    <i name="Echarged">      0.00000000 </i>
    <i name="Edipol_quadrupol">      0.00000000 </i>
    <i name="Eion">      0.00000000 </i>
   </dipole>
   <energy>
    <i name="e_fr_energy">   -188.78692910 </i>
    <i name="e_wo_entrp">   -188.74437176 </i>
    <i name="e_0_energy">   -188.77274332 </i>
   </energy>
  </scstep>
  <scstep>
   <time name="diag">    0.15    0.15</time>
   <time name="diis">    0.54    0.54</time>
   <time name="orth">    0.02    0.02</time>
   <time name="total">    0.79    0.80</time>
   <dipole>
    <v name="dipole">      0.00000000       0.00000000      -0.08602557 </v>
    <i name="Tr[quadrupol]">  -4566.17126100 </i>
    <i name="Echarged">      0.00000000 </i>
    <i name="Edipol_quadrupol">      0.00000000 </i>
    <i name="Eion">      0.00000000 </i>
   </dipole>
   <energy>
    <i name="e_fr_energy">   -188.07782729 </i>
    <i name="e_wo_entrp">   -188.04640270 </i>
    <i name="e_0_energy">   -188.06735243 </i>
   </energy>
  </scstep>
  <scstep>
   <time name="diag">    0.15    0.15</time>
   <time name="diis">    0.54    0.54</time>
   <time name="orth">    0.02    0.02</time>
   <time name="total">    0.80    0.80</time>
   <dipole>
    <v name="dipole">      0.00000000       0.00000000      -0.11816410 </v>
    <i name="Tr[quadrupol]">  -4566.12037970 </i>
    <i name="Echarged">      0.00000000 </i>
    <i name="Edipol_quadrupol">      0.00000000 </i>
    <i name="Eion">      0.00000000 </i>
   </dipole>
   <energy>
    <i name="e_fr_energy">   -187.95221903 </i>
    <i name="e_wo_entrp">   -187.92231244 </i>
    <i name="e_0_energy">   -187.94225017 </i>
   </energy>
  </scstep>
  <scstep>
   <time name="diag">    0.15    0.15</time>
   <time name="diis">    0.53    0.54</time>
   <time name="orth">    0.02    0.02</time>
   <time name="total">    0.79    0.79</time>
   <dipole>
    <v name="dipole">      0.00000000       0.00000000      -0.06347758 </v>
    <i name="Tr[quadrupol]">  -4566.67150078 </i>
    <i name="Echarged">      0.00000000 </i>
    <i name="Edipol_quadrupol">      0.00000000 </i>
    <i name="Eion">      0.00000000 </i>
   </dipole>
   <energy>
    <i name="e_fr_energy">   -187.59556414 </i>
    <i name="e_wo_entrp">   -187.53749213 </i>
    <i name="e_0_energy">   -187.57620681 </i>
   </energy>
  </scstep>
  <scstep>
   <time name="diag">    0.15    0.15</time>
   <time name="diis">    0.54    0.54</time>
   <time name="orth">    0.02    0.02</time>
   <time name="total">    0.79    0.80</time>
   <dipole>
    <v name="dipole">      0.00000000       0.00000000      -0.06676474 </v>
    <i name="Tr[quadrupol]">  -4566.88903269 </i>
    <i name="Echarged">      0.00000000 </i>
    <i name="Edipol_quadrupol">      0.00000000 </i>
    <i name="Eion">      0.00000000 </i>
   </dipole>
   <energy>
    <i name="e_fr_energy">   -187.45819695 </i>
    <i name="e_wo_entrp">   -187.39368811 </i>
    <i name="e_0_energy">   -187.43669401 </i>
   </energy>
  </scstep>
  <scstep>
   <time name="diag">    0.15    0.15</time>
   <time name="diis">    0.54    0.55</time>
   <time name="orth">    0.02    0.02</time>
   <time name="total">    0.80    0.80</time>
   <dipole>
    <v name="dipole">      0.00000000       0.00000000      -0.06938534 </v>
    <i name="Tr[quadrupol]">  -4567.17844285 </i>
    <i name="Echarged">      0.00000000 </i>
    <i name="Edipol_quadrupol">      0.00000000 </i>
    <i name="Eion">      0.00000000 </i>
   </dipole>
   <energy>
    <i name="e_fr_energy">   -187.42378407 </i>
    <i name="e_wo_entrp">   -187.35667077 </i>
    <i name="e_0_energy">   -187.40141297 </i>
   </energy>
  </scstep>
  <scstep>
   <time name="diag">    0.15    0.15</time>
   <time name="diis">    0.55    0.56</time>
   <time name="orth">    0.02    0.02</time>
   <time name="total">    0.81    0.82</time>
   <dipole>
    <v name="dipole">      0.00000000       0.00000000      -0.06619675 </v>
    <i name="Tr[quadrupol]">  -4567.33623420 </i>
    <i name="Echarged">      0.00000000 </i>
    <i name="Edipol_quadrupol">      0.00000000 </i>
    <i name="Eion">      0.00000000 </i>
   </dipole>
   <energy>
    <i name="e_fr_energy">   -187.40378575 </i>
    <i name="e_wo_entrp">   -187.33266500 </i>
    <i name="e_0_energy">   -187.38007884 </i>
   </energy>
  </scstep>
  <scstep>
   <time name="diag">    0.15    0.15</time>
   <time name="diis">    0.55    0.56</time>
   <time name="orth">    0.02    0.02</time>
   <time name="total">    0.81    0.81</time>
   <dipole>
    <v name="dipole">      0.00000000       0.00000000      -0.05850716 </v>
    <i name="Tr[quadrupol]">  -4567.55982281 </i>
    <i name="Echarged">      0.00000000 </i>
    <i name="Edipol_quadrupol">      0.00000000 </i>
    <i name="Eion">      0.00000000 </i>
   </dipole>
   <energy>
    <i name="e_fr_energy">   -187.40333110 </i>
    <i name="e_wo_entrp">   -187.33074074 </i>
    <i name="e_0_energy">   -187.37913431 </i>
   </energy>
  </scstep>
  <scstep>
   <time name="diag">    0.15    0.15</time>
   <time name="diis">    0.57    0.57</time>
   <time name="orth">    0.02    0.02</time>
   <time name="total">    0.82    0.83</time>
   <dipole>
    <v name="dipole">      0.00000000       0.00000000      -0.05031994 </v>
    <i name="Tr[quadrupol]">  -4568.05540375 </i>
    <i name="Echarged">      0.00000000 </i>
    <i name="Edipol_quadrupol">      0.00000000 </i>
    <i name="Eion">      0.00000000 </i>
   </dipole>
   <energy>
    <i name="e_fr_energy">   -187.39321489 </i>
    <i name="e_wo_entrp">   -187.32236946 </i>
    <i name="e_0_energy">   -187.36959975 </i>
   </energy>
  </scstep>
  <scstep>
   <time name="diag">    0.15    0.15</time>
   <time name="diis">    0.54    0.54</time>
   <time name="orth">    0.02    0.02</time>
   <time name="total">    0.80    0.80</time>
   <dipole>
    <v name="dipole">      0.00000000       0.00000000      -0.04737325 </v>
    <i name="Tr[quadrupol]">  -4568.25581989 </i>
    <i name="Echarged">      0.00000000 </i>
    <i name="Edipol_quadrupol">      0.00000000 </i>
    <i name="Eion">      0.00000000 </i>
   </dipole>
   <energy>
    <i name="e_fr_energy">   -187.38910455 </i>
    <i name="e_wo_entrp">   -187.31687118 </i>
    <i name="e_0_energy">   -187.36502676 </i>
   </energy>
  </scstep>
  <scstep>
   <time name="diag">    0.15    0.15</time>
   <time name="diis">    0.54    0.55</time>
   <time name="orth">    0.02    0.02</time>
   <time name="total">    0.80    0.81</time>
   <dipole>
    <v name="dipole">      0.00000000       0.00000000      -0.04704122 </v>
    <i name="Tr[quadrupol]">  -4568.42379950 </i>
    <i name="Echarged">      0.00000000 </i>
    <i name="Edipol_quadrupol">      0.00000000 </i>
    <i name="Eion">      0.00000000 </i>
   </dipole>
   <energy>
    <i name="e_fr_energy">   -187.38881310 </i>
    <i name="e_wo_entrp">   -187.31654833 </i>
    <i name="e_0_energy">   -187.36472484 </i>
   </energy>
  </scstep>
  <scstep>
   <time name="diag">    0.15    0.15</time>
   <time name="diis">    0.55    0.55</time>
   <time name="orth">    0.02    0.02</time>
   <time name="total">    0.80    0.81</time>
   <dipole>
    <v name="dipole">      0.00000000       0.00000000      -0.04654552 </v>
    <i name="Tr[quadrupol]">  -4568.58320405 </i>
    <i name="Echarged">      0.00000000 </i>
    <i name="Edipol_quadrupol">      0.00000000 </i>
    <i name="Eion">      0.00000000 </i>
   </dipole>
   <energy>
    <i name="e_fr_energy">   -187.38807419 </i>
    <i name="e_wo_entrp">   -187.31561016 </i>
    <i name="e_0_energy">   -187.36391951 </i>
   </energy>
  </scstep>
  <scstep>
   <time name="diag">    0.15    0.15</time>
   <time name="diis">    0.56    0.57</time>
   <time name="orth">    0.02    0.02</time>
   <time name="total">    0.82    0.83</time>
   <dipole>
    <v name="dipole">      0.00000000       0.00000000      -0.04663703 </v>
    <i name="Tr[quadrupol]">  -4568.82005010 </i>
    <i name="Echarged">      0.00000000 </i>
    <i name="Edipol_quadrupol">      0.00000000 </i>
    <i name="Eion">      0.00000000 </i>
   </dipole>
   <energy>
    <i name="e_fr_energy">   -187.38784913 </i>
    <i name="e_wo_entrp">   -187.31531815 </i>
    <i name="e_0_energy">   -187.36367214 </i>
   </energy>
  </scstep>
  <scstep>
   <time name="diag">    0.15    0.15</time>
   <time name="diis">    0.53    0.53</time>
   <time name="orth">    0.02    0.02</time>
   <time name="total">    0.79    0.79</time>
   <dipole>
    <v name="dipole">      0.00000000       0.00000000      -0.04813928 </v>
    <i name="Tr[quadrupol]">  -4569.08001035 </i>
    <i name="Echarged">      0.00000000 </i>
    <i name="Edipol_quadrupol">      0.00000000 </i>
    <i name="Eion">      0.00000000 </i>
   </dipole>
   <energy>
    <i name="e_fr_energy">   -187.38731301 </i>
    <i name="e_wo_entrp">   -187.31495811 </i>
    <i name="e_0_energy">   -187.36319471 </i>
   </energy>
  </scstep>
  <scstep>
   <time name="diag">    0.15    0.15</time>
   <time name="diis">    0.43    0.43</time>
   <time name="orth">    0.02    0.02</time>
   <time name="total">    0.65    0.65</time>
   <dipole>
    <v name="dipole">      0.00000000       0.00000000      -0.04710819 </v>
    <i name="Tr[quadrupol]">  -4569.23760450 </i>
    <i name="Echarged">      0.00000000 </i>
    <i name="Edipol_quadrupol">      0.00000000 </i>
    <i name="Eion">      0.00000000 </i>
   </dipole>
   <energy>
    <i name="alphaZ">    628.59359890 </i>
    <i name="ewald">  75672.51956099 </i>
    <i name="hartreedc">-106456.56366265 </i>
    <i name="XCdc">  -1052.80616458 </i>
    <i name="pawpsdc">  34393.71176198 </i>
    <i name="pawaedc"> -32224.07620541 </i>
    <i name="eentropy">     -0.07211955 </i>
    <i name="bandstr">   -601.24981796 </i>
    <i name="atom">  29452.55580095 </i>
    <i name="e_fr_energy">   -187.38724735 </i>
    <i name="e_wo_entrp">   -187.31512780 </i>
    <i name="e_0_energy">   -187.36320750 </i>
   </energy>
  </scstep>
  <structure>
   <crystal>
    <varray name="basis" >
     <v>       8.35800215       0.00000000       0.00000000 </v>
     <v>       0.00000000       8.35800215       0.00000000 </v>
     <v>       0.00000000       0.00000000      19.91000000 </v>
    </varray>
    <i name="volume">   1390.83694200 </i>
    <varray name="rec_basis" >
     <v>       0.11964582       0.00000000       0.00000000 </v>
     <v>       0.00000000       0.11964582       0.00000000 </v>
     <v>       0.00000000       0.00000000       0.05022602 </v>
    </varray>
   </crystal>
   <varray name="positions" >
    <v>       0.16666667       0.16666667       0.00000000 </v>
    <v>       0.50000000       0.16666667       0.00000000 </v>
    <v>       0.83333333       0.16666667       0.00000000 </v>
    <v>       0.16666667       0.50000000       0.00000000 </v>
    <v>       0.50000000       0.50000000       0.00000000 </v>
    <v>       0.83333333       0.50000000       0.00000000 </v>
    <v>       0.16666667       0.83333333       0.00000000 </v>
    <v>       0.50000000       0.83333333       0.00000000 </v>
    <v>       0.83333333       0.83333333       0.00000000 </v>
    <v>       0.00000000       0.00000000       0.09894525 </v>
    <v>       0.33333333       0.00000000       0.09894525 </v>
    <v>       0.66666667       0.00000000       0.09894525 </v>
    <v>       0.00000000       0.33333333       0.09894525 </v>
    <v>       0.33333333       0.33333333       0.09894525 </v>
    <v>       0.66666667       0.33333333       0.09894525 </v>
    <v>       0.00000000       0.66666667       0.09894525 </v>
    <v>       0.33333333       0.66666667       0.09894525 </v>
    <v>       0.66666667       0.66666667       0.09894525 </v>
    <v>       0.17321675       0.16435468       0.19910850 </v>
    <v>       0.50034157       0.16515895       0.19818418 </v>
    <v>       0.83635674       0.16496310       0.19532616 </v>
    <v>       0.17012738       0.49705656       0.19783172 </v>
    <v>       0.49973883       0.49537940       0.19872336 </v>
    <v>       0.83637327       0.50199064       0.19660576 </v>
    <v>       0.16805772       0.83005574       0.19794017 </v>
    <v>       0.49926916       0.83069409       0.19859890 </v>
    <v>       0.83408803       0.83456911       0.19753210 </v>
    <v>       0.00010519       0.99970548       0.29600365 </v>
    <v>       0.33300182       0.99173400       0.29708124 </v>
    <v>       0.66740920       0.00007797       0.29628751 </v>
    <v>       0.00863933       0.33050343       0.29484553 </v>
    <v>       0.34971297       0.31251775       0.30205560 </v>
    <v>       0.68479579       0.33514513       0.29449766 </v>
    <v>       0.99757799       0.66537433       0.29691851 </v>
    <v>       0.33273269       0.66737477       0.30066998 </v>
    <v>       0.66940378       0.66825272       0.29590622 </v>
    <v>       0.55530668       0.27321312       0.34777612 </v>
    <v>       0.49490038       0.51488536       0.40200139 </v>
    <v>       0.33730368       0.49396865       0.38839845 </v>
   </varray>
  </structure>
  <varray name="forces" >
   <v>       0.03882256       0.00214449       0.11250968 </v>
   <v>      -0.04627508       0.00101751       0.10477909 </v>
   <v>      -0.00131116       0.02263103       0.06530439 </v>
   <v>       0.01419151      -0.01299418       0.10852320 </v>
   <v>      -0.02347289      -0.00276615       0.10548213 </v>
   <v>      -0.00525883       0.00799920       0.09238624 </v>
   <v>       0.02778190       0.01467527       0.09940214 </v>
   <v>      -0.02604256       0.02075401       0.11948777 </v>
   <v>       0.00331334      -0.02228553       0.05697445 </v>
   <v>       0.12530602      -0.02949464      -0.16829927 </v>
   <v>       0.01829974      -0.06635678       0.03912598 </v>
   <v>      -0.03954527      -0.03960754      -0.09987605 </v>
   <v>       0.11609631      -0.00649839      -0.03849262 </v>
   <v>       0.03080959      -0.07079743      -0.09437456 </v>
   <v>       0.01749890       0.01978143      -0.04492734 </v>
   <v>       0.06986532       0.06415386      -0.11710895 </v>
   <v>       0.03526553      -0.05891524      -0.05713237 </v>
   <v>      -0.04623419       0.00342140       0.01231854 </v>
   <v>      -0.14844707       0.00201333      -0.21918976 </v>
   <v>       0.13271342      -0.10153443      -0.16352220 </v>
   <v>       0.04512927       0.03384080       0.13883048 </v>
   <v>       0.03581364       0.03507426       0.09368121 </v>
   <v>       0.09530773       0.22432406      -0.02777579 </v>
   <v>      -0.00230996      -0.04630775      -0.00265643 </v>
   <v>      -0.03733831      -0.01541063       0.03780586 </v>
   <v>       0.00846378      -0.03471229      -0.14251947 </v>
   <v>      -0.03807937      -0.04980930      -0.07972558 </v>
   <v>      -0.00808519      -0.04169462      -0.05306179 </v>
   <v>      -0.00938649      -0.11985453       0.02798587 </v>
   <v>       0.05660586       0.06781491      -0.06096107 </v>
   <v>       0.01404194       0.03584025      -0.00438306 </v>
   <v>       0.16732926       0.14980489       0.42002636 </v>
   <v>       0.03807115      -0.03316764      -0.12552263 </v>
   <v>       0.06146609       0.01189916      -0.11169666 </v>
   <v>      -0.05879958       0.16433919      -0.15858111 </v>
   <v>       0.01175130       0.00505358      -0.04947912 </v>
   <v>      -0.47979474      -0.26854587      -0.02516787 </v>
   <v>       0.23558063      -0.06406278       0.13219807 </v>
   <v>      -0.42914405       0.19823309       0.07763228 </v>
  </varray>
  <varray name="stress" >
   <v>     -25.09163484       0.26279627      -2.48453925 </v>
   <v>       0.26279628     -23.45192820       0.49548964 </v>
   <v>      -2.48453933       0.49548964      -3.82237581 </v>
  </varray>
  <energy>
   <i name="e_fr_energy">   -187.38724735 </i>
   <i name="e_wo_entrp">   -187.31512780 </i>
   <i name="e_0_energy">   -187.36320750 </i>
  </energy>
  <time name="totalsc">   21.25   21.36</time>
  <eigenvalues>
   <array>
    <dimension dim="1">band</dimension>
    <dimension dim="2">kpoint</dimension>
    <dimension dim="3">spin</dimension>
    <field>eigene</field>
    <field>occ</field>
    <set>
     <set comment="spin 1">
      <set comment="kpoint 1">
       <r>  -13.2355    1.0000 </r>
       <r>   -5.7536    1.0000 </r>
       <r>   -5.3739    1.0000 </r>
       <r>   -4.9445    1.0000 </r>
       <r>   -4.3142    1.0000 </r>
       <r>   -4.2769    1.0000 </r>
       <r>   -4.0574    1.0000 </r>
       <r>   -4.0199    1.0000 </r>
       <r>   -3.9655    1.0000 </r>
       <r>   -3.8328    1.0000 </r>
       <r>   -3.8209    1.0000 </r>
       <r>   -3.8091    1.0000 </r>
       <r>   -3.7955    1.0000 </r>
       <r>   -3.7580    1.0000 </r>
       <r>   -3.7338    1.0000 </r>
       <r>   -3.6714    1.0000 </r>
       <r>   -3.6422    1.0000 </r>
       <r>   -3.6250    1.0000 </r>
       <r>   -3.6016    1.0000 </r>
       <r>   -3.5851    1.0000 </r>
       <r>   -3.5383    1.0000 </r>
       <r>   -3.5025    1.0000 </r>
       <r>   -3.4143    1.0000 </r>
       <r>   -3.4045    1.0000 </r>
       <r>   -3.3918    1.0000 </r>
       <r>   -3.3657    1.0000 </r>
       <r>   -3.2684    1.0000 </r>
       <r>   -3.2584    1.0000 </r>
       <r>   -3.2416    1.0000 </r>
       <r>   -3.2275    1.0000 </r>
       <r>   -3.2222    1.0000 </r>
       <r>   -3.1727    1.0000 </r>
       <r>   -3.1508    1.0000 </r>
       <r>   -3.1271    1.0000 </r>
       <r>   -3.0972    1.0000 </r>
       <r>   -3.0466    1.0000 </r>
       <r>   -3.0381    1.0000 </r>
       <r>   -2.9816    1.0000 </r>
       <r>   -2.9456    1.0000 </r>
       <r>   -2.9247    1.0000 </r>
       <r>   -2.9138    1.0000 </r>
       <r>   -2.9076    1.0000 </r>
       <r>   -2.8940    1.0000 </r>
       <r>   -2.8870    1.0000 </r>
       <r>   -2.8301    1.0000 </r>
       <r>   -2.7639    1.0000 </r>
       <r>   -2.7403    1.0000 </r>
       <r>   -2.6575    1.0000 </r>
       <r>   -2.6285    1.0000 </r>
       <r>   -2.6185    1.0000 </r>
       <r>   -2.5952    1.0000 </r>
       <r>   -2.5478    1.0000 </r>
       <r>   -2.5289    1.0000 </r>
       <r>   -2.4856    1.0000 </r>
       <r>   -2.4797    1.0000 </r>
       <r>   -2.4580    1.0000 </r>
       <r>   -2.4361    1.0000 </r>
       <r>   -2.4156    1.0000 </r>
       <r>   -2.4027    1.0000 </r>
       <r>   -2.3366    1.0000 </r>
       <r>   -2.3199    1.0000 </r>
       <r>   -2.2676    1.0000 </r>
       <r>   -2.2515    1.0000 </r>
       <r>   -2.2179    1.0000 </r>
       <r>   -2.1950    1.0000 </r>
       <r>   -2.1296    1.0000 </r>
       <r>   -2.1129    1.0000 </r>
       <r>   -2.0942    1.0000 </r>
       <r>   -2.0601    1.0000 </r>
       <r>   -2.0369    1.0000 </r>
       <r>   -1.9913    1.0000 </r>
       <r>   -1.9640    1.0000 </r>
       <r>   -1.9573    1.0000 </r>
       <r>   -1.9115    1.0000 </r>
       <r>   -1.8892    1.0000 </r>
       <r>   -1.8252    1.0000 </r>
       <r>   -1.7818    1.0000 </r>
       <r>   -1.7674    1.0000 </r>
       <r>   -1.7466    1.0000 </r>
       <r>   -1.7355    1.0000 </r>
       <r>   -1.7144    1.0000 </r>
       <r>   -1.6850    1.0000 </r>
       <r>   -1.6605    1.0000 </r>
       <r>   -1.6505    1.0000 </r>
       <r>   -1.6337    1.0000 </r>
       <r>   -1.6178    1.0000 </r>
       <r>   -1.6154    1.0000 </r>
       <r>   -1.5889    1.0000 </r>
       <r>   -1.5686    1.0000 </r>
       <r>   -1.5557    1.0000 </r>
       <r>   -1.5422    1.0000 </r>
       <r>   -1.4964    1.0000 </r>
       <r>   -1.4711    1.0000 </r>
       <r>   -1.4613    1.0000 </r>
       <r>   -1.4360    1.0000 </r>
       <r>   -1.4149    1.0000 </r>
       <r>   -1.3983    1.0000 </r>
       <r>   -1.3692    1.0000 </r>
       <r>   -1.3424    1.0000 </r>
       <r>   -1.3037    1.0000 </r>
       <r>   -1.2889    1.0000 </r>
       <r>   -1.2630    1.0000 </r>
       <r>   -1.2468    1.0000 </r>
       <r>   -1.2301    1.0000 </r>
       <r>   -1.2080    1.0000 </r>
       <r>   -1.1047    1.0000 </r>
       <r>   -1.0813    1.0000 </r>
       <r>   -1.0605    1.0000 </r>
       <r>   -1.0474    1.0000 </r>
       <r>   -1.0173    1.0000 </r>
       <r>   -0.9992    1.0000 </r>
       <r>   -0.9577    1.0000 </r>
       <r>   -0.9300    1.0000 </r>
       <r>   -0.8839    1.0000 </r>
       <r>   -0.8602    1.0000 </r>
       <r>   -0.8567    1.0000 </r>
       <r>   -0.8426    1.0000 </r>
       <r>   -0.8298    1.0000 </r>
       <r>   -0.8043    1.0000 </r>
       <r>   -0.8019    1.0000 </r>
       <r>   -0.7792    1.0000 </r>
       <r>   -0.7659    1.0000 </r>
       <r>   -0.7509    1.0000 </r>
       <r>   -0.7283    1.0000 </r>
       <r>   -0.7039    1.0000 </r>
       <r>   -0.6776    1.0000 </r>
       <r>   -0.6614    1.0000 </r>
       <r>   -0.6445    1.0000 </r>
       <r>   -0.6217    1.0000 </r>
       <r>   -0.5981    1.0000 </r>
       <r>   -0.5689    1.0000 </r>
       <r>   -0.5274    1.0000 </r>
       <r>   -0.4960    1.0000 </r>
       <r>   -0.4612    1.0000 </r>
       <r>   -0.4478    1.0000 </r>
       <r>   -0.4230    1.0000 </r>
       <r>   -0.4160    1.0000 </r>
       <r>   -0.4026    1.0000 </r>
       <r>   -0.3769    1.0000 </r>
       <r>   -0.3339    1.0000 </r>
       <r>   -0.2899    1.0000 </r>
       <r>   -0.2559    1.0000 </r>
       <r>   -0.2323    1.0000 </r>
       <r>   -0.2142    1.0000 </r>
       <r>   -0.2046    1.0000 </r>
       <r>   -0.1670    1.0000 </r>
       <r>   -0.1570    1.0000 </r>
       <r>   -0.1420    1.0000 </r>
       <r>   -0.1358    1.0000 </r>
       <r>   -0.0932    1.0000 </r>
       <r>   -0.0537    1.0000 </r>
       <r>   -0.0253    1.0000 </r>
       <r>    0.0292    1.0000 </r>
       <r>    0.0598    1.0000 </r>
       <r>    0.0870    1.0000 </r>
       <r>    0.0978    1.0000 </r>
       <r>    0.1360    1.0000 </r>
       <r>    0.1437    1.0000 </r>
       <r>    0.1712    1.0000 </r>
       <r>    0.1843    1.0000 </r>
       <r>    0.1945    1.0000 </r>
       <r>    0.2137    1.0000 </r>
       <r>    0.2271    1.0000 </r>
       <r>    0.2530    1.0000 </r>
       <r>    0.2725    1.0000 </r>
       <r>    0.3279    1.0000 </r>
       <r>    0.3518    1.0000 </r>
       <r>    0.3691    1.0000 </r>
       <r>    0.3891    1.0001 </r>
       <r>    0.4088    1.0003 </r>
       <r>    0.4188    1.0005 </r>
       <r>    0.4369    1.0012 </r>
       <r>    0.4488    1.0020 </r>
       <r>    0.4640    1.0036 </r>
       <r>    0.4721    1.0049 </r>
       <r>    0.4849    1.0076 </r>
       <r>    0.5118    1.0166 </r>
       <r>    0.5422    1.0301 </r>
       <r>    0.5793    1.0311 </r>
       <r>    0.5900    1.0210 </r>
       <r>    0.6138    0.9688 </r>
       <r>    0.6520    0.7731 </r>
       <r>    0.6653    0.6746 </r>
       <r>    0.6799    0.5556 </r>
       <r>    0.6945    0.4324 </r>
       <r>    0.7095    0.3107 </r>
       <r>    0.7264    0.1901 </r>
       <r>    0.7489    0.0691 </r>
       <r>    0.8161   -0.0347 </r>
       <r>    0.8287   -0.0309 </r>
       <r>    0.9575   -0.0004 </r>
       <r>    1.0831   -0.0000 </r>
       <r>    1.3188   -0.0000 </r>
       <r>    1.5282   -0.0000 </r>
       <r>    1.5650   -0.0000 </r>
       <r>    1.6340   -0.0000 </r>
       <r>    1.7554   -0.0000 </r>
       <r>    1.8104   -0.0000 </r>
       <r>    2.0491   -0.0000 </r>
       <r>    2.1392   -0.0000 </r>
       <r>    2.2924   -0.0000 </r>
       <r>    2.5759   -0.0000 </r>
       <r>    2.9094    0.0000 </r>
       <r>    3.2440    0.0000 </r>
       <r>    3.3452    0.0000 </r>
       <r>    3.4637    0.0000 </r>
       <r>    3.5506    0.0000 </r>
       <r>    3.7586    0.0000 </r>
       <r>    3.8842    0.0000 </r>
       <r>    4.1909    0.0000 </r>
       <r>    4.3420    0.0000 </r>
       <r>    4.6048    0.0000 </r>
       <r>    4.7712    0.0000 </r>
       <r>    4.9878    0.0000 </r>
       <r>    5.2105    0.0000 </r>
       <r>    5.3530    0.0000 </r>
       <r>    5.5468    0.0000 </r>
       <r>    5.6841    0.0000 </r>
       <r>    5.8397    0.0000 </r>
       <r>    5.9743    0.0000 </r>
      </set>
      <set comment="kpoint 2">
       <r>  -13.2355    1.0000 </r>
       <r>   -5.7579    1.0000 </r>
       <r>   -5.3722    1.0000 </r>
       <r>   -4.9266    1.0000 </r>
       <r>   -4.3471    1.0000 </r>
       <r>   -4.2737    1.0000 </r>
       <r>   -4.0470    1.0000 </r>
       <r>   -4.0162    1.0000 </r>
       <r>   -3.9681    1.0000 </r>
       <r>   -3.8302    1.0000 </r>
       <r>   -3.8209    1.0000 </r>
       <r>   -3.8038    1.0000 </r>
       <r>   -3.7932    1.0000 </r>
       <r>   -3.7559    1.0000 </r>
       <r>   -3.7411    1.0000 </r>
       <r>   -3.6755    1.0000 </r>
       <r>   -3.6440    1.0000 </r>
       <r>   -3.6290    1.0000 </r>
       <r>   -3.5993    1.0000 </r>
       <r>   -3.5783    1.0000 </r>
       <r>   -3.5343    1.0000 </r>
       <r>   -3.5087    1.0000 </r>
       <r>   -3.4185    1.0000 </r>
       <r>   -3.4080    1.0000 </r>
       <r>   -3.3885    1.0000 </r>
       <r>   -3.3643    1.0000 </r>
       <r>   -3.2700    1.0000 </r>
       <r>   -3.2576    1.0000 </r>
       <r>   -3.2489    1.0000 </r>
       <r>   -3.2303    1.0000 </r>
       <r>   -3.2173    1.0000 </r>
       <r>   -3.1811    1.0000 </r>
       <r>   -3.1582    1.0000 </r>
       <r>   -3.1195    1.0000 </r>
       <r>   -3.0996    1.0000 </r>
       <r>   -3.0445    1.0000 </r>
       <r>   -3.0299    1.0000 </r>
       <r>   -2.9735    1.0000 </r>
       <r>   -2.9436    1.0000 </r>
       <r>   -2.9233    1.0000 </r>
       <r>   -2.9149    1.0000 </r>
       <r>   -2.9044    1.0000 </r>
       <r>   -2.8962    1.0000 </r>
       <r>   -2.8820    1.0000 </r>
       <r>   -2.8367    1.0000 </r>
       <r>   -2.7852    1.0000 </r>
       <r>   -2.7306    1.0000 </r>
       <r>   -2.6502    1.0000 </r>
       <r>   -2.6353    1.0000 </r>
       <r>   -2.6174    1.0000 </r>
       <r>   -2.5904    1.0000 </r>
       <r>   -2.5656    1.0000 </r>
       <r>   -2.5185    1.0000 </r>
       <r>   -2.4865    1.0000 </r>
       <r>   -2.4664    1.0000 </r>
       <r>   -2.4560    1.0000 </r>
       <r>   -2.4292    1.0000 </r>
       <r>   -2.4158    1.0000 </r>
       <r>   -2.3975    1.0000 </r>
       <r>   -2.3696    1.0000 </r>
       <r>   -2.3151    1.0000 </r>
       <r>   -2.2761    1.0000 </r>
       <r>   -2.2310    1.0000 </r>
       <r>   -2.1959    1.0000 </r>
       <r>   -2.1817    1.0000 </r>
       <r>   -2.1427    1.0000 </r>
       <r>   -2.1125    1.0000 </r>
       <r>   -2.0770    1.0000 </r>
       <r>   -2.0719    1.0000 </r>
       <r>   -2.0389    1.0000 </r>
       <r>   -1.9979    1.0000 </r>
       <r>   -1.9781    1.0000 </r>
       <r>   -1.9478    1.0000 </r>
       <r>   -1.9004    1.0000 </r>
       <r>   -1.8831    1.0000 </r>
       <r>   -1.8411    1.0000 </r>
       <r>   -1.7771    1.0000 </r>
       <r>   -1.7647    1.0000 </r>
       <r>   -1.7408    1.0000 </r>
       <r>   -1.7352    1.0000 </r>
       <r>   -1.7022    1.0000 </r>
       <r>   -1.6939    1.0000 </r>
       <r>   -1.6717    1.0000 </r>
       <r>   -1.6640    1.0000 </r>
       <r>   -1.6343    1.0000 </r>
       <r>   -1.6265    1.0000 </r>
       <r>   -1.6123    1.0000 </r>
       <r>   -1.5883    1.0000 </r>
       <r>   -1.5812    1.0000 </r>
       <r>   -1.5693    1.0000 </r>
       <r>   -1.5440    1.0000 </r>
       <r>   -1.5032    1.0000 </r>
       <r>   -1.4587    1.0000 </r>
       <r>   -1.4534    1.0000 </r>
       <r>   -1.4307    1.0000 </r>
       <r>   -1.4078    1.0000 </r>
       <r>   -1.3875    1.0000 </r>
       <r>   -1.3791    1.0000 </r>
       <r>   -1.3431    1.0000 </r>
       <r>   -1.3206    1.0000 </r>
       <r>   -1.3070    1.0000 </r>
       <r>   -1.2643    1.0000 </r>
       <r>   -1.2410    1.0000 </r>
       <r>   -1.2053    1.0000 </r>
       <r>   -1.1736    1.0000 </r>
       <r>   -1.1081    1.0000 </r>
       <r>   -1.1031    1.0000 </r>
       <r>   -1.0698    1.0000 </r>
       <r>   -1.0490    1.0000 </r>
       <r>   -1.0370    1.0000 </r>
       <r>   -0.9895    1.0000 </r>
       <r>   -0.9579    1.0000 </r>
       <r>   -0.9222    1.0000 </r>
       <r>   -0.8761    1.0000 </r>
       <r>   -0.8632    1.0000 </r>
       <r>   -0.8479    1.0000 </r>
       <r>   -0.8398    1.0000 </r>
       <r>   -0.8201    1.0000 </r>
       <r>   -0.8094    1.0000 </r>
       <r>   -0.7887    1.0000 </r>
       <r>   -0.7783    1.0000 </r>
       <r>   -0.7630    1.0000 </r>
       <r>   -0.7438    1.0000 </r>
       <r>   -0.7297    1.0000 </r>
       <r>   -0.7090    1.0000 </r>
       <r>   -0.6861    1.0000 </r>
       <r>   -0.6519    1.0000 </r>
       <r>   -0.6451    1.0000 </r>
       <r>   -0.6295    1.0000 </r>
       <r>   -0.6028    1.0000 </r>
       <r>   -0.5593    1.0000 </r>
       <r>   -0.5303    1.0000 </r>
       <r>   -0.4869    1.0000 </r>
       <r>   -0.4709    1.0000 </r>
       <r>   -0.4478    1.0000 </r>
       <r>   -0.4334    1.0000 </r>
       <r>   -0.4052    1.0000 </r>
       <r>   -0.3988    1.0000 </r>
       <r>   -0.3743    1.0000 </r>
       <r>   -0.3527    1.0000 </r>
       <r>   -0.3042    1.0000 </r>
       <r>   -0.2728    1.0000 </r>
       <r>   -0.2395    1.0000 </r>
       <r>   -0.2142    1.0000 </r>
       <r>   -0.1901    1.0000 </r>
       <r>   -0.1752    1.0000 </r>
       <r>   -0.1536    1.0000 </r>
       <r>   -0.1389    1.0000 </r>
       <r>   -0.1262    1.0000 </r>
       <r>   -0.0881    1.0000 </r>
       <r>   -0.0541    1.0000 </r>
       <r>   -0.0075    1.0000 </r>
       <r>    0.0062    1.0000 </r>
       <r>    0.0628    1.0000 </r>
       <r>    0.0755    1.0000 </r>
       <r>    0.0982    1.0000 </r>
       <r>    0.1386    1.0000 </r>
       <r>    0.1543    1.0000 </r>
       <r>    0.1692    1.0000 </r>
       <r>    0.1823    1.0000 </r>
       <r>    0.2015    1.0000 </r>
       <r>    0.2125    1.0000 </r>
       <r>    0.2306    1.0000 </r>
       <r>    0.2448    1.0000 </r>
       <r>    0.2762    1.0000 </r>
       <r>    0.3121    1.0000 </r>
       <r>    0.3426    1.0000 </r>
       <r>    0.3700    1.0000 </r>
       <r>    0.3916    1.0001 </r>
       <r>    0.4021    1.0002 </r>
       <r>    0.4310    1.0009 </r>
       <r>    0.4368    1.0012 </r>
       <r>    0.4512    1.0022 </r>
       <r>    0.4591    1.0030 </r>
       <r>    0.4774    1.0059 </r>
       <r>    0.4821    1.0069 </r>
       <r>    0.5155    1.0181 </r>
       <r>    0.5495    1.0328 </r>
       <r>    0.5643    1.0355 </r>
       <r>    0.5989    1.0068 </r>
       <r>    0.6169    0.9583 </r>
       <r>    0.6567    0.7400 </r>
       <r>    0.6659    0.6700 </r>
       <r>    0.6791    0.5620 </r>
       <r>    0.6952    0.4266 </r>
       <r>    0.7087    0.3169 </r>
       <r>    0.7284    0.1771 </r>
       <r>    0.7491    0.0683 </r>
       <r>    0.8110   -0.0354 </r>
       <r>    0.8437   -0.0244 </r>
       <r>    0.9559   -0.0005 </r>
       <r>    1.0649   -0.0000 </r>
       <r>    1.3594   -0.0000 </r>
       <r>    1.4991   -0.0000 </r>
       <r>    1.5560   -0.0000 </r>
       <r>    1.6312   -0.0000 </r>
       <r>    1.7088   -0.0000 </r>
       <r>    1.8957   -0.0000 </r>
       <r>    2.0222   -0.0000 </r>
       <r>    2.1511   -0.0000 </r>
       <r>    2.2838   -0.0000 </r>
       <r>    2.5346   -0.0000 </r>
       <r>    3.0110    0.0000 </r>
       <r>    3.2359    0.0000 </r>
       <r>    3.3398    0.0000 </r>
       <r>    3.4554    0.0000 </r>
       <r>    3.5136    0.0000 </r>
       <r>    3.7080    0.0000 </r>
       <r>    3.9840    0.0000 </r>
       <r>    4.1760    0.0000 </r>
       <r>    4.3036    0.0000 </r>
       <r>    4.6390    0.0000 </r>
       <r>    4.7702    0.0000 </r>
       <r>    4.9367    0.0000 </r>
       <r>    5.1919    0.0000 </r>
       <r>    5.4046    0.0000 </r>
       <r>    5.5494    0.0000 </r>
       <r>    5.7979    0.0000 </r>
       <r>    5.9110    0.0000 </r>
       <r>    5.9636    0.0000 </r>
      </set>
     </set>
    </set>
   </array>
  </eigenvalues>
  <separator name="orbital magnetization" >
   <v name="MAGDIPOLOUT">      0.00000000      0.00000000      0.00000000</v>
  </separator>
  <dos>
   <i name="efermi">      0.68643696 </i>
   <total>
    <array>
     <dimension dim="1">gridpoints</dimension>
     <dimension dim="2">spin</dimension>
     <field>energy</field>
     <field>total</field>
     <field>integrated</field>
     <set>
      <set comment="spin 1">
       <r>   -14.2355     0.0000     0.0000 </r>
       <r>   -14.1648     0.0000     0.0000 </r>
       <r>   -14.0941    -0.0000    -0.0000 </r>
       <r>   -14.0234    -0.0000    -0.0000 </r>
       <r>   -13.9527    -0.0000    -0.0000 </r>
       <r>   -13.8820    -0.0000    -0.0000 </r>
       <r>   -13.8113    -0.0000    -0.0000 </r>
       <r>   -13.7406    -0.0000    -0.0000 </r>
       <r>   -13.6699    -0.0000    -0.0000 </r>
       <r>   -13.5992    -0.0000    -0.0000 </r>
       <r>   -13.5285    -0.0038    -0.0003 </r>
       <r>   -13.4578    -0.0992    -0.0073 </r>
       <r>   -13.3871    -0.6587    -0.0539 </r>
       <r>   -13.3164     0.9782     0.0153 </r>
       <r>   -13.2457    11.4968     0.8281 </r>
       <r>   -13.1750    14.3741     1.8444 </r>
       <r>   -13.1043     3.1752     2.0688 </r>
       <r>   -13.0336    -0.7611     2.0150 </r>
       <r>   -12.9629    -0.2014     2.0008 </r>
       <r>   -12.8922    -0.0111     2.0000 </r>
       <r>   -12.8215    -0.0002     2.0000 </r>
       <r>   -12.7508    -0.0000     2.0000 </r>
       <r>   -12.6801    -0.0000     2.0000 </r>
       <r>   -12.6094    -0.0000     2.0000 </r>
       <r>   -12.5387     0.0000     2.0000 </r>
       <r>   -12.4680     0.0000     2.0000 </r>
       <r>   -12.3973     0.0000     2.0000 </r>
       <r>   -12.3266     0.0000     2.0000 </r>
       <r>   -12.2559     0.0000     2.0000 </r>
       <r>   -12.1852     0.0000     2.0000 </r>
       <r>   -12.1145     0.0000     2.0000 </r>
       <r>   -12.0438     0.0000     2.0000 </r>
       <r>   -11.9731     0.0000     2.0000 </r>
       <r>   -11.9024     0.0000     2.0000 </r>
       <r>   -11.8317     0.0000     2.0000 </r>
       <r>   -11.7610     0.0000     2.0000 </r>
       <r>   -11.6903     0.0000     2.0000 </r>
       <r>   -11.6196     0.0000     2.0000 </r>
       <r>   -11.5489     0.0000     2.0000 </r>
       <r>   -11.4782     0.0000     2.0000 </r>
       <r>   -11.4075     0.0000     2.0000 </r>
       <r>   -11.3368     0.0000     2.0000 </r>
       <r>   -11.2661     0.0000     2.0000 </r>
       <r>   -11.1954     0.0000     2.0000 </r>
       <r>   -11.1247     0.0000     2.0000 </r>
       <r>   -11.0540     0.0000     2.0000 </r>
       <r>   -10.9833     0.0000     2.0000 </r>
       <r>   -10.9126     0.0000     2.0000 </r>
       <r>   -10.8419     0.0000     2.0000 </r>
       <r>   -10.7712     0.0000     2.0000 </r>
       <r>   -10.7005     0.0000     2.0000 </r>
       <r>   -10.6298     0.0000     2.0000 </r>
       <r>   -10.5591     0.0000     2.0000 </r>
       <r>   -10.4884     0.0000     2.0000 </r>
       <r>   -10.4177     0.0000     2.0000 </r>
       <r>   -10.3470     0.0000     2.0000 </r>
       <r>   -10.2763     0.0000     2.0000 </r>
       <r>   -10.2056     0.0000     2.0000 </r>
       <r>   -10.1349     0.0000     2.0000 </r>
       <r>   -10.0642     0.0000     2.0000 </r>
       <r>    -9.9935     0.0000     2.0000 </r>
       <r>    -9.9228     0.0000     2.0000 </r>
       <r>    -9.8521     0.0000     2.0000 </r>
       <r>    -9.7814     0.0000     2.0000 </r>
       <r>    -9.7107     0.0000     2.0000 </r>
       <r>    -9.6400     0.0000     2.0000 </r>
       <r>    -9.5693     0.0000     2.0000 </r>
       <r>    -9.4986     0.0000     2.0000 </r>
       <r>    -9.4279     0.0000     2.0000 </r>
       <r>    -9.3572     0.0000     2.0000 </r>
       <r>    -9.2865     0.0000     2.0000 </r>
       <r>    -9.2158     0.0000     2.0000 </r>
       <r>    -9.1451     0.0000     2.0000 </r>
       <r>    -9.0744     0.0000     2.0000 </r>
       <r>    -9.0037     0.0000     2.0000 </r>
       <r>    -8.9330     0.0000     2.0000 </r>
       <r>    -8.8623     0.0000     2.0000 </r>
       <r>    -8.7916     0.0000     2.0000 </r>
       <r>    -8.7209     0.0000     2.0000 </r>
       <r>    -8.6502     0.0000     2.0000 </r>
       <r>    -8.5795     0.0000     2.0000 </r>
       <r>    -8.5088     0.0000     2.0000 </r>
       <r>    -8.4381     0.0000     2.0000 </r>
       <r>    -8.3675     0.0000     2.0000 </r>
       <r>    -8.2968     0.0000     2.0000 </r>
       <r>    -8.2261     0.0000     2.0000 </r>
       <r>    -8.1554     0.0000     2.0000 </r>
       <r>    -8.0847     0.0000     2.0000 </r>
       <r>    -8.0140     0.0000     2.0000 </r>
       <r>    -7.9433     0.0000     2.0000 </r>
       <r>    -7.8726     0.0000     2.0000 </r>
       <r>    -7.8019     0.0000     2.0000 </r>
       <r>    -7.7312     0.0000     2.0000 </r>
       <r>    -7.6605     0.0000     2.0000 </r>
       <r>    -7.5898     0.0000     2.0000 </r>
       <r>    -7.5191     0.0000     2.0000 </r>
       <r>    -7.4484     0.0000     2.0000 </r>
       <r>    -7.3777     0.0000     2.0000 </r>
       <r>    -7.3070     0.0000     2.0000 </r>
       <r>    -7.2363     0.0000     2.0000 </r>
       <r>    -7.1656     0.0000     2.0000 </r>
       <r>    -7.0949     0.0000     2.0000 </r>
       <r>    -7.0242     0.0000     2.0000 </r>
       <r>    -6.9535     0.0000     2.0000 </r>
       <r>    -6.8828     0.0000     2.0000 </r>
       <r>    -6.8121     0.0000     2.0000 </r>
       <r>    -6.7414     0.0000     2.0000 </r>
       <r>    -6.6707     0.0000     2.0000 </r>
       <r>    -6.6000    -0.0000     2.0000 </r>
       <r>    -6.5293    -0.0000     2.0000 </r>
       <r>    -6.4586    -0.0000     2.0000 </r>
       <r>    -6.3879    -0.0000     2.0000 </r>
       <r>    -6.3172    -0.0000     2.0000 </r>
       <r>    -6.2465    -0.0000     2.0000 </r>
       <r>    -6.1758    -0.0000     2.0000 </r>
       <r>    -6.1051    -0.0001     2.0000 </r>
       <r>    -6.0344    -0.0082     1.9994 </r>
       <r>    -5.9637    -0.1654     1.9877 </r>
       <r>    -5.8930    -0.7510     1.9346 </r>
       <r>    -5.8223     2.4207     2.1058 </r>
       <r>    -5.7516    13.6339     3.0697 </r>
       <r>    -5.6809    12.4607     3.9506 </r>
       <r>    -5.6102     1.4779     4.0551 </r>
       <r>    -5.5395    -1.2193     3.9689 </r>
       <r>    -5.4688    -0.1232     3.9602 </r>
       <r>    -5.3981     8.9179     4.5907 </r>
       <r>    -5.3274    15.5584     5.6907 </r>
       <r>    -5.2567     5.3596     6.0696 </r>
       <r>    -5.1860    -0.6827     6.0213 </r>
       <r>    -5.1153    -0.6959     5.9721 </r>
       <r>    -5.0446    -0.4586     5.9397 </r>
       <r>    -4.9739     6.6205     6.4078 </r>
       <r>    -4.9032    15.5998     7.5106 </r>
       <r>    -4.8325     7.6479     8.0513 </r>
       <r>    -4.7618    -0.2413     8.0343 </r>
       <r>    -4.6911    -0.4405     8.0031 </r>
       <r>    -4.6204    -0.0498     7.9996 </r>
       <r>    -4.5497    -0.1395     7.9898 </r>
       <r>    -4.4790    -0.8354     7.9307 </r>
       <r>    -4.4083     0.8248     7.9890 </r>
       <r>    -4.3376    14.6908     9.0276 </r>
       <r>    -4.2669    27.5376    10.9745 </r>
       <r>    -4.1962    13.6772    11.9415 </r>
       <r>    -4.1255     1.1278    12.0212 </r>
       <r>    -4.0548    18.8721    13.3555 </r>
       <r>    -3.9841    37.3605    15.9968 </r>
       <r>    -3.9134    23.5209    17.6597 </r>
       <r>    -3.8427    35.0994    20.1412 </r>
       <r>    -3.7720    75.2496    25.4613 </r>
       <r>    -3.7013    66.9435    30.1941 </r>
       <r>    -3.6306    63.8431    34.7078 </r>
       <r>    -3.5599    70.1059    39.6642 </r>
       <r>    -3.4892    49.3373    43.1523 </r>
       <r>    -3.4185    47.5466    46.5138 </r>
       <r>    -3.3478    56.2920    50.4936 </r>
       <r>    -3.2771    56.9225    54.5180 </r>
       <r>    -3.2064    85.1640    60.5390 </r>
       <r>    -3.1357    80.3580    66.2202 </r>
       <r>    -3.0650    59.9555    70.4590 </r>
       <r>    -2.9943    56.8754    74.4801 </r>
       <r>    -2.9236    88.0003    80.7016 </r>
       <r>    -2.8529    95.7638    87.4720 </r>
       <r>    -2.7822    51.5266    91.1149 </r>
       <r>    -2.7115    32.9052    93.4413 </r>
       <r>    -2.6408    48.9560    96.9024 </r>
       <r>    -2.5701    69.3437   101.8049 </r>
       <r>    -2.4994    74.8443   107.0964 </r>
       <r>    -2.4287    89.6948   113.4377 </r>
       <r>    -2.3580    75.5893   118.7818 </r>
       <r>    -2.2873    53.3605   122.5543 </r>
       <r>    -2.2166    56.4655   126.5464 </r>
       <r>    -2.1459    62.4031   130.9582 </r>
       <r>    -2.0752    69.7029   135.8862 </r>
       <r>    -2.0045    71.1783   140.9184 </r>
       <r>    -1.9338    66.3633   145.6102 </r>
       <r>    -1.8631    54.3065   149.4497 </r>
       <r>    -1.7924    54.5006   153.3028 </r>
       <r>    -1.7217    87.3357   159.4774 </r>
       <r>    -1.6510   115.3100   167.6297 </r>
       <r>    -1.5803   119.7895   176.0987 </r>
       <r>    -1.5096    93.3284   182.6969 </r>
       <r>    -1.4389    83.0609   188.5692 </r>
       <r>    -1.3682    89.5966   194.9036 </r>
       <r>    -1.2975    83.3812   200.7986 </r>
       <r>    -1.2268    74.5816   206.0714 </r>
       <r>    -1.1561    52.3081   209.7696 </r>
       <r>    -1.0854    56.4064   213.7575 </r>
       <r>    -1.0147    75.6779   219.1078 </r>
       <r>    -0.9440    64.2616   223.6511 </r>
       <r>    -0.8733    77.4342   229.1256 </r>
       <r>    -0.8026   119.9203   237.6038 </r>
       <r>    -0.7319   122.3962   246.2571 </r>
       <r>    -0.6613   100.4607   253.3596 </r>
       <r>    -0.5906    81.5030   259.1218 </r>
       <r>    -0.5199    64.2129   263.6616 </r>
       <r>    -0.4492    79.9412   269.3134 </r>
       <r>    -0.3785    93.0860   275.8945 </r>
       <r>    -0.3078    67.9230   280.6966 </r>
       <r>    -0.2371    66.9435   285.4294 </r>
       <r>    -0.1664    94.1671   292.0869 </r>
       <r>    -0.0957    89.2970   298.4002 </r>
       <r>    -0.0250    59.9641   302.6396 </r>
       <r>     0.0457    55.3848   306.5552 </r>
       <r>     0.1164    77.5654   312.0390 </r>
       <r>     0.1871   106.9205   319.5982 </r>
       <r>     0.2578   102.8820   326.8719 </r>
       <r>     0.3285    74.0489   332.1071 </r>
       <r>     0.3992    93.4363   338.7129 </r>
       <r>     0.4699   125.1637   347.5619 </r>
       <r>     0.5406   102.4985   354.8084 </r>
       <r>     0.6113    80.8356   360.5234 </r>
       <r>     0.6820    99.1062   367.5301 </r>
       <r>     0.7527    95.3547   374.2716 </r>
       <r>     0.8234    55.2722   378.1793 </r>
       <r>     0.8941    26.6989   380.0669 </r>
       <r>     0.9648    16.2501   381.2158 </r>
       <r>     1.0355    16.8147   382.4045 </r>
       <r>     1.1062    16.3356   383.5595 </r>
       <r>     1.1769     6.4333   384.0143 </r>
       <r>     1.2476     0.3080   384.0361 </r>
       <r>     1.3183     8.8111   384.6590 </r>
       <r>     1.3890    13.2543   385.5961 </r>
       <r>     1.4597     8.6853   386.2101 </r>
       <r>     1.5304    21.6237   387.7389 </r>
       <r>     1.6011    32.8125   390.0587 </r>
       <r>     1.6718    26.0239   391.8986 </r>
       <r>     1.7425    19.5322   393.2795 </r>
       <r>     1.8132    17.1081   394.4890 </r>
       <r>     1.8839    12.4843   395.3716 </r>
       <r>     1.9546     8.3762   395.9638 </r>
       <r>     2.0253    11.8399   396.8009 </r>
       <r>     2.0960    18.1698   398.0855 </r>
       <r>     2.1667    17.8660   399.3486 </r>
       <r>     2.2374    13.4242   400.2977 </r>
       <r>     2.3081    15.1807   401.3709 </r>
       <r>     2.3788     8.8238   401.9948 </r>
       <r>     2.4495     0.1856   402.0079 </r>
       <r>     2.5202     6.7468   402.4849 </r>
       <r>     2.5909    14.7563   403.5281 </r>
       <r>     2.6616     7.1982   404.0370 </r>
       <r>     2.7323    -0.2769   404.0175 </r>
       <r>     2.8030    -0.7158   403.9669 </r>
       <r>     2.8737     3.0963   404.1858 </r>
       <r>     2.9444     9.1059   404.8295 </r>
       <r>     3.0151    10.3037   405.5580 </r>
       <r>     3.0858     5.3761   405.9381 </r>
       <r>     3.1565     1.0325   406.0111 </r>
       <r>     3.2272     9.9965   406.7178 </r>
       <r>     3.2979    19.4425   408.0924 </r>
       <r>     3.3686    18.8673   409.4263 </r>
       <r>     3.4393    18.2608   410.7173 </r>
       <r>     3.5100    24.2215   412.4298 </r>
       <r>     3.5807    18.1891   413.7157 </r>
       <r>     3.6514     6.0263   414.1418 </r>
       <r>     3.7221     9.7812   414.8333 </r>
       <r>     3.7928    12.9731   415.7505 </r>
       <r>     3.8635     8.4560   416.3483 </r>
       <r>     3.9342     9.4745   417.0181 </r>
       <r>     4.0049     9.3517   417.6793 </r>
       <r>     4.0756     3.9839   417.9610 </r>
       <r>     4.1463     6.3557   418.4103 </r>
       <r>     4.2170    15.2861   419.4910 </r>
       <r>     4.2877    14.6801   420.5289 </r>
       <r>     4.3584    14.6271   421.5630 </r>
       <r>     4.4291     6.4968   422.0223 </r>
       <r>     4.4998    -0.7301   421.9707 </r>
       <r>     4.5705     4.1002   422.2606 </r>
       <r>     4.6412    13.7899   423.2355 </r>
       <r>     4.7119    13.1882   424.1679 </r>
       <r>     4.7826    14.7825   425.2130 </r>
       <r>     4.8533    10.6668   425.9672 </r>
       <r>     4.9240     7.6641   426.5090 </r>
       <r>     4.9947    13.4839   427.4623 </r>
       <r>     5.0654     6.9482   427.9535 </r>
       <r>     5.1361     2.8736   428.1567 </r>
       <r>     5.2068    12.7672   429.0593 </r>
       <r>     5.2775    12.4325   429.9383 </r>
       <r>     5.3482     9.3212   430.5973 </r>
       <r>     5.4189    12.8101   431.5029 </r>
       <r>     5.4896     9.8442   432.1989 </r>
       <r>     5.5603    14.1278   433.1977 </r>
       <r>     5.6310    12.5415   434.0844 </r>
       <r>     5.7017     7.8358   434.6384 </r>
       <r>     5.7724     9.4443   435.3061 </r>
       <r>     5.8431    15.0798   436.3722 </r>
       <r>     5.9138    19.3858   437.7428 </r>
       <r>     5.9845    21.6288   439.2719 </r>
       <r>     6.0552    10.8935   440.0421 </r>
       <r>     6.1259     0.1679   440.0540 </r>
       <r>     6.1966    -0.6749   440.0062 </r>
       <r>     6.2673    -0.0853   440.0002 </r>
       <r>     6.3380    -0.0030   440.0000 </r>
       <r>     6.4087    -0.0000   440.0000 </r>
       <r>     6.4794    -0.0000   440.0000 </r>
       <r>     6.5501    -0.0000   440.0000 </r>
       <r>     6.6208    -0.0000   440.0000 </r>
       <r>     6.6915     0.0000   440.0000 </r>
       <r>     6.7622     0.0000   440.0000 </r>
       <r>     6.8329     0.0000   440.0000 </r>
       <r>     6.9036     0.0000   440.0000 </r>
       <r>     6.9743     0.0000   440.0000 </r>
      </set>
     </set>
    </array>
   </total>
  </dos>
 </calculation>
 <structure name="finalpos" >
  <crystal>
   <varray name="basis" >
    <v>       8.35800215       0.00000000       0.00000000 </v>
    <v>       0.00000000       8.35800215       0.00000000 </v>
    <v>       0.00000000       0.00000000      19.91000000 </v>
   </varray>
   <i name="volume">   1390.83694200 </i>
   <varray name="rec_basis" >
    <v>       0.11964582       0.00000000       0.00000000 </v>
    <v>       0.00000000       0.11964582       0.00000000 </v>
    <v>       0.00000000       0.00000000       0.05022602 </v>
   </varray>
  </crystal>
  <varray name="positions" >
   <v>       0.16666667       0.16666667       0.00000000 </v>
   <v>       0.50000000       0.16666667       0.00000000 </v>
   <v>       0.83333333       0.16666667       0.00000000 </v>
   <v>       0.16666667       0.50000000       0.00000000 </v>
   <v>       0.50000000       0.50000000       0.00000000 </v>
   <v>       0.83333333       0.50000000       0.00000000 </v>
   <v>       0.16666667       0.83333333       0.00000000 </v>
   <v>       0.50000000       0.83333333       0.00000000 </v>
   <v>       0.83333333       0.83333333       0.00000000 </v>
   <v>       0.00000000       0.00000000       0.09894525 </v>
   <v>       0.33333333       0.00000000       0.09894525 </v>
   <v>       0.66666667       0.00000000       0.09894525 </v>
   <v>       0.00000000       0.33333333       0.09894525 </v>
   <v>       0.33333333       0.33333333       0.09894525 </v>
   <v>       0.66666667       0.33333333       0.09894525 </v>
   <v>       0.00000000       0.66666667       0.09894525 </v>
   <v>       0.33333333       0.66666667       0.09894525 </v>
   <v>       0.66666667       0.66666667       0.09894525 </v>
   <v>       0.17321675       0.16435468       0.19910850 </v>
   <v>       0.50034157       0.16515895       0.19818418 </v>
   <v>       0.83635674       0.16496310       0.19532616 </v>
   <v>       0.17012738       0.49705656       0.19783172 </v>
   <v>       0.49973883       0.49537940       0.19872336 </v>
   <v>       0.83637327       0.50199064       0.19660576 </v>
   <v>       0.16805772       0.83005574       0.19794017 </v>
   <v>       0.49926916       0.83069409       0.19859890 </v>
   <v>       0.83408803       0.83456911       0.19753210 </v>
   <v>       0.00010519       0.99970548       0.29600365 </v>
   <v>       0.33300182       0.99173400       0.29708124 </v>
   <v>       0.66740920       0.00007797       0.29628751 </v>
   <v>       0.00863933       0.33050343       0.29484553 </v>
   <v>       0.34971297       0.31251775       0.30205560 </v>
   <v>       0.68479579       0.33514513       0.29449766 </v>
   <v>       0.99757799       0.66537433       0.29691851 </v>
   <v>       0.33273269       0.66737477       0.30066998 </v>
   <v>       0.66940378       0.66825272       0.29590622 </v>
   <v>       0.55530668       0.27321312       0.34777612 </v>
   <v>       0.49490038       0.51488536       0.40200139 </v>
   <v>       0.33730368       0.49396865       0.38839845 </v>
  </varray>
  <varray name="selective"  type="logical" >
   <v type="logical" >  F  F  F </v>
   <v type="logical" >  F  F  F </v>
   <v type="logical" >  F  F  F </v>
   <v type="logical" >  F  F  F </v>
   <v type="logical" >  F  F  F </v>
   <v type="logical" >  F  F  F </v>
   <v type="logical" >  F  F  F </v>
   <v type="logical" >  F  F  F </v>
   <v type="logical" >  F  F  F </v>
   <v type="logical" >  F  F  F </v>
   <v type="logical" >  F  F  F </v>
   <v type="logical" >  F  F  F </v>
   <v type="logical" >  F  F  F </v>
   <v type="logical" >  F  F  F </v>
   <v type="logical" >  F  F  F </v>
   <v type="logical" >  F  F  F </v>
   <v type="logical" >  F  F  F </v>
   <v type="logical" >  F  F  F </v>
   <v type="logical" >  T  T  T </v>
   <v type="logical" >  T  T  T </v>
   <v type="logical" >  T  T  T </v>
   <v type="logical" >  T  T  T </v>
   <v type="logical" >  T  T  T </v>
   <v type="logical" >  T  T  T </v>
   <v type="logical" >  T  T  T </v>
   <v type="logical" >  T  T  T </v>
   <v type="logical" >  T  T  T </v>
   <v type="logical" >  T  T  T </v>
   <v type="logical" >  T  T  T </v>
   <v type="logical" >  T  T  T </v>
   <v type="logical" >  T  T  T </v>
   <v type="logical" >  T  T  T </v>
   <v type="logical" >  T  T  T </v>
   <v type="logical" >  T  T  T </v>
   <v type="logical" >  T  T  T </v>
   <v type="logical" >  T  T  T </v>
   <v type="logical" >  T  T  T </v>
   <v type="logical" >  T  T  T </v>
   <v type="logical" >  T  T  T </v>
  </varray>
  <nose>
   <v>      -3.00000000       0.00000000       0.00010000       0.00010000 </v>
  </nose>
 </structure>
</modeling>
