unknown system                          
           1
     8.358002    0.000000    0.000000
     0.000000    8.358002    0.000000
     0.000000    0.000000   19.910000
   Pd   H    S 
    36     2     1
Direct configuration=     1
   0.16666667  0.16666667  0.00000000
   0.50000000  0.16666667  0.00000000
   0.83333333  0.16666667  0.00000000
   0.16666667  0.50000000  0.00000000
   0.50000000  0.50000000  0.00000000
   0.83333333  0.50000000  0.00000000
   0.16666667  0.83333333  0.00000000
   0.50000000  0.83333333  0.00000000
   0.83333333  0.83333333  0.00000000
   0.00000000  0.00000000  0.09894525
   0.33333333  0.00000000  0.09894525
   0.66666667  0.00000000  0.09894525
   0.00000000  0.33333333  0.09894525
   0.33333333  0.33333333  0.09894525
   0.66666667  0.33333333  0.09894525
   0.00000000  0.66666667  0.09894525
   0.33333333  0.66666667  0.09894525
   0.66666667  0.66666667  0.09894525
   0.17321675  0.16435468  0.19910850
   0.50034157  0.16515895  0.19818418
   0.83635674  0.16496310  0.19532616
   0.17012738  0.49705656  0.19783172
   0.49973883  0.49537940  0.19872336
   0.83637327  0.50199064  0.19660576
   0.16805772  0.83005574  0.19794017
   0.49926916  0.83069409  0.19859890
   0.83408803  0.83456911  0.19753210
   0.00010519  0.99970548  0.29600365
   0.33300182  0.99173400  0.29708124
   0.66740920  0.00007797  0.29628751
   0.00863933  0.33050343  0.29484553
   0.34971297  0.31251775  0.30205560
   0.68479579  0.33514513  0.29449766
   0.99757799  0.66537433  0.29691851
   0.33273269  0.66737477  0.30066998
   0.66940378  0.66825272  0.29590622
   0.55530668  0.27321312  0.34777612
   0.49490038  0.51488536  0.40200139
   0.33730368  0.49396865  0.38839845
