  39  39   0   0
  0.3566249E+02  0.8358002E-09  0.8358002E-09  0.1991000E-08  0.5000000E-15
   1.0000000000000000E-004
  CAR 
 unknown system                          
      6.95428006    -14.21852346  301      0.68376839      1.00000000
    -14.219  0.0000E+00  0.0000E+00
    -14.148  0.0000E+00  0.0000E+00
    -14.077 -0.6340E-30 -0.4475E-31
    -14.007 -0.6507E-25 -0.4593E-26
    -13.936 -0.2447E-20 -0.1727E-21
    -13.866 -0.3364E-16 -0.2375E-17
    -13.795 -0.1641E-12 -0.1158E-13
    -13.724 -0.2961E-09 -0.2091E-10
    -13.654 -0.1928E-06 -0.1363E-07
    -13.583 -0.4468E-04 -0.3167E-05
    -13.513 -0.3594E-02 -0.2568E-03
    -13.442 -0.9440E-01 -0.6919E-02
    -13.372 -0.6460E+00 -0.5251E-01
    -13.301  0.8516E+00  0.7594E-02
    -13.230  0.1122E+02  0.7995E+00
    -13.160  0.1457E+02  0.1828E+01
    -13.089  0.3429E+01  0.2070E+01
    -13.019 -0.7586E+00  0.2016E+01
    -12.948 -0.2155E+00  0.2001E+01
    -12.878 -0.1237E-01  0.2000E+01
    -12.807 -0.2223E-03  0.2000E+01
    -12.736 -0.1367E-05  0.2000E+01
    -12.666 -0.2973E-08  0.2000E+01
    -12.595 -0.2322E-11  0.2000E+01
    -12.525  0.0000E+00  0.2000E+01
    -12.454  0.0000E+00  0.2000E+01
    -12.384  0.0000E+00  0.2000E+01
    -12.313  0.0000E+00  0.2000E+01
    -12.242  0.0000E+00  0.2000E+01
    -12.172  0.0000E+00  0.2000E+01
    -12.101  0.0000E+00  0.2000E+01
    -12.031  0.0000E+00  0.2000E+01
    -11.960  0.0000E+00  0.2000E+01
    -11.890  0.0000E+00  0.2000E+01
    -11.819  0.0000E+00  0.2000E+01
    -11.748  0.0000E+00  0.2000E+01
    -11.678  0.0000E+00  0.2000E+01
    -11.607  0.0000E+00  0.2000E+01
    -11.537  0.0000E+00  0.2000E+01
    -11.466  0.0000E+00  0.2000E+01
    -11.395  0.0000E+00  0.2000E+01
    -11.325  0.0000E+00  0.2000E+01
    -11.254  0.0000E+00  0.2000E+01
    -11.184  0.0000E+00  0.2000E+01
    -11.113  0.0000E+00  0.2000E+01
    -11.043  0.0000E+00  0.2000E+01
    -10.972  0.0000E+00  0.2000E+01
    -10.901  0.0000E+00  0.2000E+01
    -10.831  0.0000E+00  0.2000E+01
    -10.760  0.0000E+00  0.2000E+01
    -10.690  0.0000E+00  0.2000E+01
    -10.619  0.0000E+00  0.2000E+01
    -10.549  0.0000E+00  0.2000E+01
    -10.478  0.0000E+00  0.2000E+01
    -10.407  0.0000E+00  0.2000E+01
    -10.337  0.0000E+00  0.2000E+01
    -10.266  0.0000E+00  0.2000E+01
    -10.196  0.0000E+00  0.2000E+01
    -10.125  0.0000E+00  0.2000E+01
    -10.055  0.0000E+00  0.2000E+01
     -9.984  0.0000E+00  0.2000E+01
     -9.913  0.0000E+00  0.2000E+01
     -9.843  0.0000E+00  0.2000E+01
     -9.772  0.0000E+00  0.2000E+01
     -9.702  0.0000E+00  0.2000E+01
     -9.631  0.0000E+00  0.2000E+01
     -9.561  0.0000E+00  0.2000E+01
     -9.490  0.0000E+00  0.2000E+01
     -9.419  0.0000E+00  0.2000E+01
     -9.349  0.0000E+00  0.2000E+01
     -9.278  0.0000E+00  0.2000E+01
     -9.208  0.0000E+00  0.2000E+01
     -9.137  0.0000E+00  0.2000E+01
     -9.066  0.0000E+00  0.2000E+01
     -8.996  0.0000E+00  0.2000E+01
     -8.925  0.0000E+00  0.2000E+01
     -8.855  0.0000E+00  0.2000E+01
     -8.784  0.0000E+00  0.2000E+01
     -8.714  0.0000E+00  0.2000E+01
     -8.643  0.0000E+00  0.2000E+01
     -8.572  0.0000E+00  0.2000E+01
     -8.502  0.0000E+00  0.2000E+01
     -8.431  0.0000E+00  0.2000E+01
     -8.361  0.0000E+00  0.2000E+01
     -8.290  0.0000E+00  0.2000E+01
     -8.220  0.0000E+00  0.2000E+01
     -8.149  0.0000E+00  0.2000E+01
     -8.078  0.0000E+00  0.2000E+01
     -8.008  0.0000E+00  0.2000E+01
     -7.937  0.0000E+00  0.2000E+01
     -7.867  0.0000E+00  0.2000E+01
     -7.796  0.0000E+00  0.2000E+01
     -7.726  0.0000E+00  0.2000E+01
     -7.655  0.0000E+00  0.2000E+01
     -7.584  0.0000E+00  0.2000E+01
     -7.514  0.0000E+00  0.2000E+01
     -7.443  0.0000E+00  0.2000E+01
     -7.373  0.0000E+00  0.2000E+01
     -7.302  0.0000E+00  0.2000E+01
     -7.231  0.0000E+00  0.2000E+01
     -7.161 -0.3678E-28  0.2000E+01
     -7.090 -0.2664E-23  0.2000E+01
     -7.020 -0.7073E-19  0.2000E+01
     -6.949 -0.6868E-15  0.2000E+01
     -6.879 -0.2354E-11  0.2000E+01
     -6.808 -0.3001E-08  0.2000E+01
     -6.737 -0.1374E-05  0.2000E+01
     -6.667 -0.2227E-03  0.2000E+01
     -6.596 -0.1236E-01  0.1999E+01
     -6.526 -0.2150E+00  0.1984E+01
     -6.455 -0.7569E+00  0.1931E+01
     -6.385  0.3417E+01  0.2172E+01
     -6.314  0.1454E+02  0.3198E+01
     -6.243  0.1124E+02  0.3991E+01
     -6.173  0.8675E+00  0.4053E+01
     -6.102 -0.6467E+00  0.4007E+01
     -6.032 -0.9512E-01  0.4000E+01
     -5.961 -0.3643E-02  0.4000E+01
     -5.891 -0.4632E-04  0.4000E+01
     -5.820 -0.1288E-03  0.4000E+01
     -5.749 -0.7929E-02  0.3999E+01
     -5.679 -0.1577E+00  0.3988E+01
     -5.608 -0.7253E+00  0.3937E+01
     -5.538  0.2213E+01  0.4093E+01
     -5.467  0.1319E+02  0.5024E+01
     -5.397  0.1279E+02  0.5927E+01
     -5.326  0.1887E+01  0.6060E+01
     -5.255 -0.9398E+00  0.5994E+01
     -5.185 -0.8965E+00  0.5930E+01
     -5.114  0.3659E+01  0.6189E+01
     -5.044  0.1474E+02  0.7229E+01
     -4.973  0.1093E+02  0.8000E+01
     -4.902  0.7194E+00  0.8051E+01
     -4.832 -0.6300E+00  0.8006E+01
     -4.761 -0.8852E-01  0.8000E+01
     -4.691 -0.7560E-02  0.8000E+01
     -4.620 -0.9849E-01  0.7993E+01
     -4.550 -0.6070E+00  0.7950E+01
     -4.479  0.7039E+00  0.8000E+01
     -4.408  0.9608E+01  0.8678E+01
     -4.338  0.1706E+02  0.9882E+01
     -4.267  0.2059E+02  0.1133E+02
     -4.197  0.2313E+02  0.1297E+02
     -4.126  0.1807E+02  0.1424E+02
     -4.056  0.1836E+02  0.1554E+02
     -3.985  0.2005E+02  0.1695E+02
     -3.914  0.1271E+02  0.1785E+02
     -3.844  0.3741E+02  0.2049E+02
     -3.773  0.7973E+02  0.2612E+02
     -3.703  0.6625E+02  0.3079E+02
     -3.632  0.5770E+02  0.3487E+02
     -3.562  0.7312E+02  0.4003E+02
     -3.491  0.4899E+02  0.4349E+02
     -3.420  0.4277E+02  0.4650E+02
     -3.350  0.5896E+02  0.5066E+02
     -3.279  0.6181E+02  0.5503E+02
     -3.209  0.8807E+02  0.6124E+02
     -3.138  0.8620E+02  0.6733E+02
     -3.068  0.5211E+02  0.7100E+02
     -2.997  0.4754E+02  0.7436E+02
     -2.926  0.8745E+02  0.8053E+02
     -2.856  0.9471E+02  0.8721E+02
     -2.785  0.5000E+02  0.9074E+02
     -2.715  0.3431E+02  0.9317E+02
     -2.644  0.5592E+02  0.9711E+02
     -2.573  0.7793E+02  0.1026E+03
     -2.503  0.8848E+02  0.1089E+03
     -2.432  0.7981E+02  0.1145E+03
     -2.362  0.5987E+02  0.1187E+03
     -2.291  0.5100E+02  0.1223E+03
     -2.221  0.5483E+02  0.1262E+03
     -2.150  0.6162E+02  0.1305E+03
     -2.079  0.7372E+02  0.1357E+03
     -2.009  0.7149E+02  0.1408E+03
     -1.938  0.6770E+02  0.1456E+03
     -1.868  0.5761E+02  0.1496E+03
     -1.797  0.6121E+02  0.1539E+03
     -1.727  0.9363E+02  0.1606E+03
     -1.656  0.1150E+03  0.1687E+03
     -1.585  0.1123E+03  0.1766E+03
     -1.515  0.9639E+02  0.1834E+03
     -1.444  0.8945E+02  0.1897E+03
     -1.374  0.8235E+02  0.1955E+03
     -1.303  0.8254E+02  0.2013E+03
     -1.233  0.7058E+02  0.2063E+03
     -1.162  0.4901E+02  0.2098E+03
     -1.091  0.7131E+02  0.2148E+03
     -1.021  0.8288E+02  0.2207E+03
     -0.950  0.6126E+02  0.2250E+03
     -0.880  0.8311E+02  0.2309E+03
     -0.809  0.1199E+03  0.2393E+03
     -0.739  0.1134E+03  0.2473E+03
     -0.668  0.9248E+02  0.2538E+03
     -0.597  0.7823E+02  0.2594E+03
     -0.527  0.7153E+02  0.2644E+03
     -0.456  0.8380E+02  0.2703E+03
     -0.386  0.8809E+02  0.2765E+03
     -0.315  0.7305E+02  0.2817E+03
     -0.244  0.7062E+02  0.2867E+03
     -0.174  0.8273E+02  0.2925E+03
     -0.103  0.7681E+02  0.2979E+03
     -0.033  0.5782E+02  0.3020E+03
      0.038  0.6501E+02  0.3066E+03
      0.108  0.8888E+02  0.3129E+03
      0.179  0.1059E+03  0.3204E+03
      0.250  0.9297E+02  0.3269E+03
      0.320  0.7543E+02  0.3322E+03
      0.391  0.8957E+02  0.3386E+03
      0.461  0.1152E+03  0.3467E+03
      0.532  0.1076E+03  0.3543E+03
      0.602  0.8312E+02  0.3602E+03
      0.673  0.9529E+02  0.3669E+03
      0.744  0.9572E+02  0.3736E+03
      0.814  0.5889E+02  0.3778E+03
      0.885  0.2862E+02  0.3798E+03
      0.955  0.2635E+02  0.3817E+03
      1.026  0.2713E+02  0.3836E+03
      1.096  0.7585E+01  0.3841E+03
      1.167 -0.1635E+01  0.3840E+03
      1.238 -0.2850E+00  0.3840E+03
      1.308  0.5698E+01  0.3844E+03
      1.379  0.1101E+02  0.3852E+03
      1.449  0.1219E+02  0.3860E+03
      1.520  0.2246E+02  0.3876E+03
      1.591  0.3089E+02  0.3898E+03
      1.661  0.2551E+02  0.3916E+03
      1.732  0.1538E+02  0.3927E+03
      1.802  0.1334E+02  0.3936E+03
      1.873  0.1802E+02  0.3949E+03
      1.943  0.1319E+02  0.3958E+03
      2.014  0.1188E+02  0.3967E+03
      2.085  0.1438E+02  0.3977E+03
      2.155  0.8295E+01  0.3983E+03
      2.226  0.1174E+02  0.3991E+03
      2.296  0.1846E+02  0.4004E+03
      2.367  0.1627E+02  0.4015E+03
      2.437  0.6065E+01  0.4020E+03
      2.508  0.4917E+01  0.4023E+03
      2.579  0.1428E+02  0.4033E+03
      2.649  0.9205E+01  0.4040E+03
      2.720  0.8075E+00  0.4040E+03
      2.790  0.6298E+01  0.4045E+03
      2.861  0.1324E+02  0.4054E+03
      2.931  0.8131E+01  0.4060E+03
      3.002  0.6791E+00  0.4060E+03
      3.073 -0.1123E+01  0.4060E+03
      3.143  0.7045E+00  0.4060E+03
      3.214  0.1058E+02  0.4067E+03
      3.284  0.1543E+02  0.4078E+03
      3.355  0.1549E+02  0.4089E+03
      3.425  0.2067E+02  0.4104E+03
      3.496  0.1760E+02  0.4116E+03
      3.567  0.1485E+02  0.4127E+03
      3.637  0.1422E+02  0.4137E+03
      3.708  0.4959E+01  0.4140E+03
      3.778  0.8569E+01  0.4146E+03
      3.849  0.1633E+02  0.4158E+03
      3.920  0.1434E+02  0.4168E+03
      3.990  0.1196E+02  0.4176E+03
      4.061  0.7067E+01  0.4181E+03
      4.131  0.1284E+02  0.4191E+03
      4.202  0.1581E+02  0.4202E+03
      4.272  0.1422E+02  0.4212E+03
      4.343  0.1008E+02  0.4219E+03
      4.414  0.2201E+01  0.4220E+03
      4.484  0.4464E+01  0.4224E+03
      4.555  0.9464E+01  0.4230E+03
      4.625  0.9104E+01  0.4237E+03
      4.696  0.9913E+01  0.4244E+03
      4.766  0.1481E+02  0.4254E+03
      4.837  0.9473E+01  0.4261E+03
      4.908  0.7101E+01  0.4266E+03
      4.978  0.1009E+02  0.4273E+03
      5.049  0.9550E+01  0.4280E+03
      5.119  0.8617E+01  0.4286E+03
      5.190  0.7403E+01  0.4291E+03
      5.260  0.7612E+01  0.4296E+03
      5.331  0.8499E+01  0.4302E+03
      5.402  0.1194E+02  0.4311E+03
      5.472  0.1013E+02  0.4318E+03
      5.543  0.7559E+01  0.4323E+03
      5.613  0.1473E+02  0.4334E+03
      5.684  0.1604E+02  0.4345E+03
      5.754  0.1487E+02  0.4355E+03
      5.825  0.8778E+01  0.4362E+03
      5.896  0.1719E+02  0.4374E+03
      5.966  0.2638E+02  0.4392E+03
      6.037  0.1181E+02  0.4401E+03
      6.107 -0.2205E+00  0.4401E+03
      6.178 -0.7183E+00  0.4400E+03
      6.249 -0.8189E-01  0.4400E+03
      6.319 -0.2743E-02  0.4400E+03
      6.390 -0.3127E-04  0.4400E+03
      6.460 -0.1265E-06  0.4400E+03
      6.531 -0.1846E-09  0.4400E+03
      6.601 -0.9753E-13  0.4400E+03
      6.672  0.0000E+00  0.4400E+03
      6.743  0.0000E+00  0.4400E+03
      6.813  0.0000E+00  0.4400E+03
      6.884  0.0000E+00  0.4400E+03
      6.954  0.0000E+00  0.4400E+03
