   39   39    1    1
  0.3566249E+02  0.8358002E-09  0.8358002E-09  0.1991000E-08  0.5000000E-15
   1.0000000000000000E-004
  CAR 
 unknown system                          
    368      2    220

  0.2500000E+00  0.2500000E+00  0.1262379E-14  0.5000000E+00
      1        -13.218523   1.000000
      2         -6.328038   1.000000
      3         -5.460158   1.000000
      4         -5.057243   1.000000
      5         -4.410240   1.000000
      6         -4.287270   1.000000
      7         -4.187708   1.000000
      8         -4.059211   1.000000
      9         -3.995370   1.000000
     10         -3.843545   1.000000
     11         -3.825636   1.000000
     12         -3.817725   1.000000
     13         -3.791531   1.000000
     14         -3.776128   1.000000
     15         -3.747075   1.000000
     16         -3.708450   1.000000
     17         -3.642500   1.000000
     18         -3.618815   1.000000
     19         -3.611750   1.000000
     20         -3.586179   1.000000
     21         -3.554921   1.000000
     22         -3.526573   1.000000
     23         -3.407447   1.000000
     24         -3.400560   1.000000
     25         -3.391838   1.000000
     26         -3.374946   1.000000
     27         -3.294115   1.000000
     28         -3.266315   1.000000
     29         -3.248624   1.000000
     30         -3.230762   1.000000
     31         -3.213211   1.000000
     32         -3.203123   1.000000
     33         -3.167634   1.000000
     34         -3.155332   1.000000
     35         -3.123309   1.000000
     36         -3.062697   1.000000
     37         -3.019700   1.000000
     38         -2.976799   1.000000
     39         -2.944761   1.000000
     40         -2.935723   1.000000
     41         -2.923428   1.000000
     42         -2.911971   1.000000
     43         -2.886509   1.000000
     44         -2.870723   1.000000
     45         -2.832821   1.000000
     46         -2.784167   1.000000
     47         -2.713179   1.000000
     48         -2.675231   1.000000
     49         -2.646042   1.000000
     50         -2.626777   1.000000
     51         -2.581249   1.000000
     52         -2.561425   1.000000
     53         -2.551944   1.000000
     54         -2.539696   1.000000
     55         -2.490780   1.000000
     56         -2.467798   1.000000
     57         -2.444781   1.000000
     58         -2.409333   1.000000
     59         -2.402472   1.000000
     60         -2.329278   1.000000
     61         -2.302744   1.000000
     62         -2.290726   1.000000
     63         -2.257924   1.000000
     64         -2.195150   1.000000
     65         -2.171470   1.000000
     66         -2.141183   1.000000
     67         -2.113908   1.000000
     68         -2.097914   1.000000
     69         -2.064603   1.000000
     70         -2.042701   1.000000
     71         -1.991136   1.000000
     72         -1.982101   1.000000
     73         -1.975649   1.000000
     74         -1.918251   1.000000
     75         -1.899629   1.000000
     76         -1.848497   1.000000
     77         -1.792470   1.000000
     78         -1.769868   1.000000
     79         -1.764345   1.000000
     80         -1.740391   1.000000
     81         -1.732825   1.000000
     82         -1.699689   1.000000
     83         -1.695166   1.000000
     84         -1.673622   1.000000
     85         -1.637248   1.000000
     86         -1.623032   1.000000
     87         -1.620932   1.000000
     88         -1.611684   1.000000
     89         -1.583517   1.000000
     90         -1.569993   1.000000
     91         -1.525103   1.000000
     92         -1.512837   1.000000
     93         -1.490608   1.000000
     94         -1.482040   1.000000
     95         -1.458727   1.000000
     96         -1.434782   1.000000
     97         -1.398429   1.000000
     98         -1.381336   1.000000
     99         -1.352159   1.000000
    100         -1.337071   1.000000
    101         -1.309117   1.000000
    102         -1.283413   1.000000
    103         -1.272236   1.000000
    104         -1.247179   1.000000
    105         -1.164524   1.000000
    106         -1.109596   1.000000
    107         -1.108028   1.000000
    108         -1.081698   1.000000
    109         -1.062580   1.000000
    110         -1.048755   1.000000
    111         -1.023424   1.000000
    112         -0.950312   1.000000
    113         -0.922559   1.000000
    114         -0.915841   1.000000
    115         -0.901295   1.000000
    116         -0.874783   1.000000
    117         -0.861411   1.000000
    118         -0.840823   1.000000
    119         -0.825541   1.000000
    120         -0.815429   1.000000
    121         -0.799112   1.000000
    122         -0.786153   1.000000
    123         -0.771991   1.000000
    124         -0.734984   1.000000
    125         -0.719374   1.000000
    126         -0.702477   1.000000
    127         -0.676659   1.000000
    128         -0.656869   1.000000
    129         -0.635317   1.000000
    130         -0.619804   1.000000
    131         -0.573078   1.000000
    132         -0.554401   1.000000
    133         -0.523044   1.000000
    134         -0.498853   1.000000
    135         -0.447072   1.000000
    136         -0.438193   1.000000
    137         -0.427114   1.000000
    138         -0.421799   1.000000
    139         -0.379129   1.000000
    140         -0.369879   1.000000
    141         -0.335345   1.000000
    142         -0.298805   1.000000
    143         -0.265025   1.000000
    144         -0.238534   1.000000
    145         -0.200232   1.000000
    146         -0.188525   1.000000
    147         -0.167532   1.000000
    148         -0.152049   1.000000
    149         -0.115541   1.000000
    150         -0.095404   1.000000
    151         -0.046648   1.000000
    152         -0.002278   1.000000
    153          0.018302   1.000000
    154          0.042027   1.000000
    155          0.064536   1.000000
    156          0.094643   1.000000
    157          0.114196   1.000000
    158          0.121345   1.000000
    159          0.141752   1.000000
    160          0.165446   1.000000
    161          0.186882   1.000000
    162          0.197477   1.000000
    163          0.224135   1.000000
    164          0.245907   1.000000
    165          0.286549   1.000000
    166          0.311164   1.000001
    167          0.331283   1.000004
    168          0.350116   1.000013
    169          0.364724   1.000031
    170          0.407611   1.000333
    171          0.409957   1.000374
    172          0.437459   1.001363
    173          0.444170   1.001820
    174          0.459036   1.003320
    175          0.469979   1.004994
    176          0.493501   1.010809
    177          0.517034   1.019991
    178          0.529858   1.025879
    179          0.560766   1.035454
    180          0.586995   1.021447
    181          0.628723   0.896542
    182          0.645658   0.798017
    183          0.652836   0.748407
    184          0.684364   0.494960
    185          0.692274   0.428306
    186          0.695777   0.399180
    187          0.735982   0.117988
    188          0.756065   0.032363
    189          0.779672  -0.020337
    190          0.861220  -0.015430
    191          0.953197  -0.000465
    192          0.985498  -0.000085
    193          1.317636  -0.000000
    194          1.506726  -0.000000
    195          1.578134  -0.000000
    196          1.623509  -0.000000
    197          1.813577  -0.000000
    198          1.840538  -0.000000
    199          2.043372  -0.000000
    200          2.255049  -0.000000
    201          2.299255  -0.000000
    202          2.542424  -0.000000
    203          2.863949   0.000000
    204          3.222294   0.000000
    205          3.370550   0.000000
    206          3.475922   0.000000
    207          3.579149   0.000000
    208          3.798100   0.000000
    209          3.908149   0.000000
    210          4.118087   0.000000
    211          4.235537   0.000000
    212          4.602068   0.000000
    213          4.752075   0.000000
    214          4.900822   0.000000
    215          5.242419   0.000000
    216          5.363039   0.000000
    217          5.588826   0.000000
    218          5.712022   0.000000
    219          5.868065   0.000000
    220          5.939900   0.000000

 -0.2500000E+00  0.2500000E+00  0.1262379E-14  0.5000000E+00
      1        -13.218519   1.000000
      2         -6.323606   1.000000
      3         -5.476935   1.000000
      4         -5.057340   1.000000
      5         -4.376308   1.000000
      6         -4.271175   1.000000
      7         -4.209347   1.000000
      8         -4.099300   1.000000
      9         -3.988485   1.000000
     10         -3.849815   1.000000
     11         -3.822847   1.000000
     12         -3.815937   1.000000
     13         -3.784860   1.000000
     14         -3.766996   1.000000
     15         -3.753619   1.000000
     16         -3.703296   1.000000
     17         -3.628460   1.000000
     18         -3.619825   1.000000
     19         -3.602631   1.000000
     20         -3.580680   1.000000
     21         -3.563150   1.000000
     22         -3.506353   1.000000
     23         -3.429969   1.000000
     24         -3.412445   1.000000
     25         -3.393889   1.000000
     26         -3.355970   1.000000
     27         -3.307054   1.000000
     28         -3.267523   1.000000
     29         -3.247246   1.000000
     30         -3.226728   1.000000
     31         -3.211241   1.000000
     32         -3.191801   1.000000
     33         -3.174945   1.000000
     34         -3.142199   1.000000
     35         -3.117888   1.000000
     36         -3.073827   1.000000
     37         -3.021933   1.000000
     38         -2.967093   1.000000
     39         -2.946049   1.000000
     40         -2.938750   1.000000
     41         -2.922792   1.000000
     42         -2.900378   1.000000
     43         -2.893197   1.000000
     44         -2.884473   1.000000
     45         -2.831895   1.000000
     46         -2.770464   1.000000
     47         -2.694627   1.000000
     48         -2.679688   1.000000
     49         -2.650369   1.000000
     50         -2.619224   1.000000
     51         -2.584641   1.000000
     52         -2.566876   1.000000
     53         -2.538877   1.000000
     54         -2.525698   1.000000
     55         -2.507026   1.000000
     56         -2.492407   1.000000
     57         -2.463860   1.000000
     58         -2.424005   1.000000
     59         -2.404788   1.000000
     60         -2.391683   1.000000
     61         -2.299173   1.000000
     62         -2.283866   1.000000
     63         -2.234888   1.000000
     64         -2.220595   1.000000
     65         -2.161159   1.000000
     66         -2.130938   1.000000
     67         -2.114510   1.000000
     68         -2.103170   1.000000
     69         -2.064690   1.000000
     70         -2.028337   1.000000
     71         -1.992098   1.000000
     72         -1.975801   1.000000
     73         -1.932523   1.000000
     74         -1.910777   1.000000
     75         -1.882889   1.000000
     76         -1.837925   1.000000
     77         -1.805956   1.000000
     78         -1.780489   1.000000
     79         -1.759524   1.000000
     80         -1.737508   1.000000
     81         -1.724268   1.000000
     82         -1.703906   1.000000
     83         -1.690613   1.000000
     84         -1.667316   1.000000
     85         -1.650704   1.000000
     86         -1.637601   1.000000
     87         -1.621851   1.000000
     88         -1.613293   1.000000
     89         -1.588442   1.000000
     90         -1.565898   1.000000
     91         -1.538829   1.000000
     92         -1.520494   1.000000
     93         -1.495604   1.000000
     94         -1.469416   1.000000
     95         -1.449954   1.000000
     96         -1.442496   1.000000
     97         -1.401803   1.000000
     98         -1.375959   1.000000
     99         -1.357439   1.000000
    100         -1.314379   1.000000
    101         -1.288508   1.000000
    102         -1.281392   1.000000
    103         -1.265753   1.000000
    104         -1.226080   1.000000
    105         -1.171590   1.000000
    106         -1.136386   1.000000
    107         -1.108642   1.000000
    108         -1.094041   1.000000
    109         -1.074199   1.000000
    110         -1.052595   1.000000
    111         -1.036764   1.000000
    112         -1.014085   1.000000
    113         -0.973585   1.000000
    114         -0.915489   1.000000
    115         -0.889629   1.000000
    116         -0.867535   1.000000
    117         -0.857546   1.000000
    118         -0.854079   1.000000
    119         -0.818033   1.000000
    120         -0.807329   1.000000
    121         -0.802333   1.000000
    122         -0.781053   1.000000
    123         -0.769789   1.000000
    124         -0.750472   1.000000
    125         -0.716678   1.000000
    126         -0.691709   1.000000
    127         -0.666687   1.000000
    128         -0.657879   1.000000
    129         -0.632171   1.000000
    130         -0.605178   1.000000
    131         -0.549351   1.000000
    132         -0.533576   1.000000
    133         -0.524792   1.000000
    134         -0.492303   1.000000
    135         -0.465507   1.000000
    136         -0.452934   1.000000
    137         -0.431887   1.000000
    138         -0.415369   1.000000
    139         -0.373200   1.000000
    140         -0.352975   1.000000
    141         -0.309649   1.000000
    142         -0.289391   1.000000
    143         -0.268471   1.000000
    144         -0.247625   1.000000
    145         -0.199520   1.000000
    146         -0.195876   1.000000
    147         -0.172660   1.000000
    148         -0.147654   1.000000
    149         -0.133678   1.000000
    150         -0.088255   1.000000
    151         -0.054387   1.000000
    152         -0.013368   1.000000
    153          0.011585   1.000000
    154          0.045669   1.000000
    155          0.073564   1.000000
    156          0.083405   1.000000
    157          0.114700   1.000000
    158          0.143937   1.000000
    159          0.153563   1.000000
    160          0.172729   1.000000
    161          0.180671   1.000000
    162          0.190394   1.000000
    163          0.214158   1.000000
    164          0.249004   1.000000
    165          0.276650   1.000000
    166          0.291135   1.000000
    167          0.340249   1.000007
    168          0.357886   1.000020
    169          0.382680   1.000088
    170          0.403621   1.000271
    171          0.417252   1.000537
    172          0.432377   1.001088
    173          0.456798   1.003043
    174          0.460362   1.003494
    175          0.477376   1.006467
    176          0.503649   1.014385
    177          0.511547   1.017590
    178          0.528421   1.025218
    179          0.553480   1.034614
    180          0.602844   0.992375
    181          0.620692   0.933340
    182          0.641100   0.827220
    183          0.653346   0.744723
    184          0.687316   0.470000
    185          0.691990   0.430679
    186          0.697483   0.385139
    187          0.725907   0.176082
    188          0.773076  -0.010179
    189          0.800228  -0.034853
    190          0.837343  -0.026033
    191          0.950914  -0.000520
    192          0.988677  -0.000071
    193          1.397434  -0.000000
    194          1.505577  -0.000000
    195          1.541098  -0.000000
    196          1.643188  -0.000000
    197          1.714866  -0.000000
    198          1.906335  -0.000000
    199          2.030392  -0.000000
    200          2.185600  -0.000000
    201          2.358976  -0.000000
    202          2.573807  -0.000000
    203          2.797120   0.000000
    204          3.227775   0.000000
    205          3.352262   0.000000
    206          3.434689   0.000000
    207          3.600713   0.000000
    208          3.799578   0.000000
    209          3.966071   0.000000
    210          4.135059   0.000000
    211          4.293494   0.000000
    212          4.498744   0.000000
    213          4.727610   0.000000
    214          4.997777   0.000000
    215          5.111057   0.000000
    216          5.429510   0.000000
    217          5.588251   0.000000
    218          5.722334   0.000000
    219          5.910762   0.000000
    220          5.954280   0.000000
