 running   48 mpi-ranks, with    1 threads/rank, on    1 nodes
 distrk:  each k-point on   48 cores,    1 groups
 distr:  one band on   24 cores,    2 groups
 vasp.6.4.3 19Mar24 (build Oct  2 2024 09:01:45) complex                         
 POSCAR found type information on POSCAR PdH S 
 POSCAR found :  3 types and      39 ions
 scaLAPACK will be used
 LDA part: xc-table for (Slater+PW92), standard interpolation
 POSCAR, INCAR and KPOINTS ok, starting setup
 FFT: planning ... GRIDC
 FFT: planning ... GRID_SOFT
 FFT: planning ... GRID
 WAVECAR not read
 WARNING: random wavefunctions but no delay for mixing, default for NELMDL
 entering main loop
       N       E                     dE             d eps       ncg     rms          rms(c)
DAV:   1     0.212101269661E+04    0.21210E+04   -0.14735E+05   880   0.119E+03
DAV:   2    -0.604665242859E+02   -0.21815E+04   -0.20405E+04   976   0.283E+02
DAV:   3    -0.191002925298E+03   -0.13054E+03   -0.11565E+03  1016   0.611E+01
DAV:   4    -0.196329390409E+03   -0.53265E+01   -0.51617E+01  1056   0.122E+01
DAV:   5    -0.196500904902E+03   -0.17151E+00   -0.17122E+00  1128   0.226E+00    0.381E+01
RMM:   6    -0.190848622757E+03    0.56523E+01   -0.26882E+01   905   0.122E+01    0.249E+01
RMM:   7    -0.282591721806E+03   -0.91743E+02   -0.59013E+01  1096   0.117E+01    0.648E+01
RMM:   8    -0.209203287592E+03    0.73388E+02   -0.34775E+01   963   0.106E+01    0.376E+01
RMM:   9    -0.190849349190E+03    0.18354E+02   -0.15898E+01   942   0.844E+00    0.155E+01
RMM:  10    -0.188919914881E+03    0.19294E+01   -0.78526E+00   920   0.563E+00    0.122E+01
RMM:  11    -0.188359775077E+03    0.56014E+00   -0.32280E+00   934   0.358E+00    0.937E+00
RMM:  12    -0.188300352910E+03    0.59422E-01   -0.14643E+00   933   0.246E+00    0.853E+00
RMM:  13    -0.187911550484E+03    0.38880E+00   -0.70966E-01   924   0.176E+00    0.481E+00
RMM:  14    -0.187706520388E+03    0.20503E+00   -0.27736E-01   922   0.115E+00    0.278E+00
RMM:  15    -0.187647009898E+03    0.59510E-01   -0.11429E-01   932   0.669E-01    0.199E+00
RMM:  16    -0.187625520664E+03    0.21489E-01   -0.41264E-02   942   0.398E-01    0.144E+00
RMM:  17    -0.187627581536E+03   -0.20609E-02   -0.19334E-02   936   0.264E-01    0.155E+00
RMM:  18    -0.187617754987E+03    0.98265E-02   -0.20542E-02   996   0.269E-01    0.116E+00
RMM:  19    -0.187605959014E+03    0.11796E-01   -0.11937E-02   957   0.228E-01    0.432E-01
RMM:  20    -0.187605442211E+03    0.51680E-03   -0.50317E-03   929   0.129E-01    0.405E-01
RMM:  21    -0.187604583489E+03    0.85872E-03   -0.25362E-03   952   0.967E-02    0.351E-01
RMM:  22    -0.187603848603E+03    0.73489E-03   -0.14043E-03   953   0.664E-02    0.260E-01
RMM:  23    -0.187603541905E+03    0.30670E-03   -0.14599E-03  1021   0.630E-02    0.272E-01
RMM:  24    -0.187603174040E+03    0.36786E-03   -0.61893E-04   838   0.493E-02    0.220E-01
RMM:  25    -0.187602914782E+03    0.25926E-03   -0.24748E-04   592   0.305E-02    0.803E-02
RMM:  26    -0.187603075214E+03   -0.16043E-03   -0.15494E-04   549   0.240E-02    0.834E-02
RMM:  27    -0.187603138743E+03   -0.63530E-04   -0.11075E-04   527   0.202E-02
   1 F= -.18760314E+03 E0= -.18758132E+03  d E =-.654600E-01
