<?xml version="1.0" encoding="ISO-8859-1"?>
<modeling>
 <generator>
  <i name="program" type="string">vasp </i>
  <i name="version" type="string">6.4.3  </i>
  <i name="subversion" type="string">19Mar24 (build Oct  2 2024 09:01:45) complex                          parallel </i>
  <i name="platform" type="string">LinuxGNU </i>
  <i name="date" type="string">2025 02 24 </i>
  <i name="time" type="string">13:01:59 </i>
 </generator>
 <incar>
  <i type="string" name="PREC">Accurate</i>
  <i type="string" name="ALGO">Fast</i>
  <i type="int" name="ICHARG">     2</i>
  <i type="int" name="IBRION">    -1</i>
  <i name="EDIFF">      0.00010000</i>
  <i name="EDIFFG">     -0.03000000</i>
  <i type="int" name="ISYM">     0</i>
  <i name="ENCUT">    400.00000000</i>
  <i type="string" name="LREAL">Auto</i>
  <i type="int" name="ISMEAR">     1</i>
  <i name="SIGMA">      0.10000000</i>
  <i type="logical" name="LWAVE"> F  </i>
  <i type="logical" name="LCHARG"> F  </i>
  <i type="string" name="GGA">PE</i>
  <i type="logical" name="LDIPOL"> T  </i>
  <i type="int" name="IDIPOL">     3</i>
 </incar>
 <primitive_cell>
  <structure name="primitive_cell" >
   <crystal>
    <varray name="basis" >
     <v>       8.35800215       0.00000000       0.00000000 </v>
     <v>       0.00000000       8.35800215       0.00000000 </v>
     <v>       0.00000000       0.00000000      19.91000000 </v>
    </varray>
    <i name="volume">   1390.83694200 </i>
    <varray name="rec_basis" >
     <v>       0.11964582       0.00000000       0.00000000 </v>
     <v>       0.00000000       0.11964582       0.00000000 </v>
     <v>       0.00000000       0.00000000       0.05022602 </v>
    </varray>
   </crystal>
   <varray name="positions" >
    <v>       0.16666667       0.16666667       0.00000000 </v>
    <v>       0.50000000       0.16666667       0.00000000 </v>
    <v>       0.83333333       0.16666667       0.00000000 </v>
    <v>       0.16666667       0.50000000       0.00000000 </v>
    <v>       0.50000000       0.50000000       0.00000000 </v>
    <v>       0.83333333       0.50000000       0.00000000 </v>
    <v>       0.16666667       0.83333333       0.00000000 </v>
    <v>       0.50000000       0.83333333       0.00000000 </v>
    <v>       0.83333333       0.83333333       0.00000000 </v>
    <v>       0.00000000       0.00000000       0.09894525 </v>
    <v>       0.33333333       0.00000000       0.09894525 </v>
    <v>       0.66666667       0.00000000       0.09894525 </v>
    <v>       0.00000000       0.33333333       0.09894525 </v>
    <v>       0.33333333       0.33333333       0.09894525 </v>
    <v>       0.66666667       0.33333333       0.09894525 </v>
    <v>       0.00000000       0.66666667       0.09894525 </v>
    <v>       0.33333333       0.66666667       0.09894525 </v>
    <v>       0.66666667       0.66666667       0.09894525 </v>
    <v>       0.16839306       0.16530295       0.19793060 </v>
    <v>       0.49977314       0.16760468       0.19913008 </v>
    <v>       0.83625016       0.16904259       0.19853530 </v>
    <v>       0.16978808       0.49892047       0.19841257 </v>
    <v>       0.50263205       0.49891993       0.19793861 </v>
    <v>       0.83624384       0.50164060       0.19781158 </v>
    <v>       0.16684749       0.83355769       0.19648384 </v>
    <v>       0.50232003       0.83487484       0.19636344 </v>
    <v>       0.83558319       0.83412151       0.19850733 </v>
    <v>       0.00096029       0.99860886       0.29636870 </v>
    <v>       0.33387445       0.99727103       0.29634665 </v>
    <v>       0.66742053       0.00154044       0.29729828 </v>
    <v>       0.99942113       0.33189545       0.29763889 </v>
    <v>       0.34225846       0.32487335       0.30343219 </v>
    <v>       0.67327807       0.33547246       0.29699599 </v>
    <v>       0.00657779       0.66881854       0.30039277 </v>
    <v>       0.34288169       0.67356282       0.29486274 </v>
    <v>       0.67248008       0.67105817       0.29562814 </v>
    <v>       0.51835806       0.25664582       0.34129681 </v>
    <v>       0.27075970       0.60602103       0.36974560 </v>
    <v>       0.16439911       0.45653691       0.37437235 </v>
   </varray>
  </structure>
  <varray name="primitive_index" >
   <v type="int" >        1 </v>
   <v type="int" >        2 </v>
   <v type="int" >        3 </v>
   <v type="int" >        4 </v>
   <v type="int" >        5 </v>
   <v type="int" >        6 </v>
   <v type="int" >        7 </v>
   <v type="int" >        8 </v>
   <v type="int" >        9 </v>
   <v type="int" >       10 </v>
   <v type="int" >       11 </v>
   <v type="int" >       12 </v>
   <v type="int" >       13 </v>
   <v type="int" >       14 </v>
   <v type="int" >       15 </v>
   <v type="int" >       16 </v>
   <v type="int" >       17 </v>
   <v type="int" >       18 </v>
   <v type="int" >       19 </v>
   <v type="int" >       20 </v>
   <v type="int" >       21 </v>
   <v type="int" >       22 </v>
   <v type="int" >       23 </v>
   <v type="int" >       24 </v>
   <v type="int" >       25 </v>
   <v type="int" >       26 </v>
   <v type="int" >       27 </v>
   <v type="int" >       28 </v>
   <v type="int" >       29 </v>
   <v type="int" >       30 </v>
   <v type="int" >       31 </v>
   <v type="int" >       32 </v>
   <v type="int" >       33 </v>
   <v type="int" >       34 </v>
   <v type="int" >       35 </v>
   <v type="int" >       36 </v>
   <v type="int" >       37 </v>
   <v type="int" >       38 </v>
   <v type="int" >       39 </v>
  </varray>
 </primitive_cell>
 <kpoints>
  <generation param="Monkhorst-Pack">
   <v type="int" name="divisions">       2        2        1 </v>
   <v name="usershift">      0.00000000       0.00000000       0.00000000 </v>
   <v name="genvec1">      0.50000000       0.00000000       0.00000000 </v>
   <v name="genvec2">      0.00000000       0.50000000       0.00000000 </v>
   <v name="genvec3">      0.00000000       0.00000000       1.00000000 </v>
   <v name="shift">      0.50000000       0.50000000       0.00000000 </v>
  </generation>
  <varray name="kpointlist" >
   <v>       0.25000000       0.25000000       0.00000000 </v>
   <v>      -0.25000000       0.25000000       0.00000000 </v>
  </varray>
  <varray name="weights" >
   <v>       0.50000000 </v>
   <v>       0.50000000 </v>
  </varray>
 </kpoints>
 <parameters>
  <separator name="general" >
   <i type="string" name="SYSTEM">unknown system</i>
   <i type="logical" name="LCOMPAT"> F  </i>
  </separator>
  <separator name="electronic" >
   <i type="string" name="PREC">accura</i>
   <i name="ENMAX">    400.00000000</i>
   <i name="ENAUG">    416.23000000</i>
   <i name="EDIFF">      0.00010000</i>
   <i type="int" name="IALGO">    68</i>
   <i type="int" name="IWAVPR">    10</i>
   <i type="int" name="NBANDS">   220</i>
   <i type="int" name="NBANDSLOW">    -1</i>
   <i type="int" name="NBANDSHIGH">    -1</i>
   <i name="NELECT">    368.00000000</i>
   <i type="int" name="TURBO">     0</i>
   <i type="int" name="IRESTART">     0</i>
   <i type="int" name="NREBOOT">     0</i>
   <i type="int" name="NMIN">     0</i>
   <i name="EREF">      0.00000000</i>
   <separator name="electronic smearing" >
    <i type="int" name="ISMEAR">     1</i>
    <i name="SIGMA">      0.10000000</i>
    <i name="KSPACING">      0.50000000</i>
    <i type="logical" name="KGAMMA"> T  </i>
    <i type="logical" name="KBLOWUP"> T  </i>
   </separator>
   <separator name="electronic projectors" >
    <i type="logical" name="LREAL"> T  </i>
    <v name="ROPT">     -0.00025000     -0.00025000     -0.00025000</v>
    <i type="int" name="LMAXPAW">  -100</i>
    <i type="int" name="LMAXMIX">     2</i>
    <i type="logical" name="NLSPLINE"> F  </i>
   </separator>
   <separator name="electronic startup" >
    <i type="int" name="ISTART">     0</i>
    <i type="int" name="ICHARG">     2</i>
    <i type="int" name="INIWAV">     1</i>
   </separator>
   <separator name="electronic spin" >
    <i type="int" name="ISPIN">     1</i>
    <i type="logical" name="LNONCOLLINEAR"> F  </i>
    <v name="MAGMOM">      1.00000000      1.00000000      1.00000000      1.00000000      1.00000000      1.00000000      1.00000000      1.00000000      1.00000000      1.00000000      1.00000000      1.00000000      1.00000000      1.00000000      1.00000000      1.00000000      1.00000000      1.00000000      1.00000000      1.00000000
      1.00000000      1.00000000      1.00000000      1.00000000      1.00000000      1.00000000      1.00000000      1.00000000      1.00000000      1.00000000      1.00000000      1.00000000      1.00000000      1.00000000      1.00000000      1.00000000      1.00000000      1.00000000      1.00000000</v>
    <i name="NUPDOWN">     -1.00000000</i>
    <i type="logical" name="LSORBIT"> F  </i>
    <v name="SAXIS">      0.00000000      0.00000000      1.00000000</v>
    <i type="logical" name="LSPIRAL"> F  </i>
    <v name="QSPIRAL">      0.00000000      0.00000000      0.00000000</v>
    <i type="logical" name="LZEROZ"> F  </i>
   </separator>
   <separator name="electronic exchange-correlation" >
    <i type="logical" name="LASPH"> F  </i>
   </separator>
   <separator name="electronic convergence" >
    <i type="int" name="NELM">    60</i>
    <i type="int" name="NELMDL">     0</i>
    <i type="int" name="NELMIN">     2</i>
    <i name="ENINI">    400.00000000</i>
    <separator name="electronic convergence detail" >
     <i type="logical" name="LDIAG"> T  </i>
     <i type="logical" name="LSUBROT"> F  </i>
     <i name="WEIMIN">      0.00000000</i>
     <i name="EBREAK">      0.00000011</i>
     <i name="DEPER">      0.30000000</i>
     <i type="int" name="NRMM">     4</i>
     <i name="TIME">      0.40000000</i>
    </separator>
   </separator>
   <separator name="electronic mixer" >
    <i name="AMIX">      0.40000000</i>
    <i name="BMIX">      1.00000000</i>
    <i name="AMIN">      0.10000000</i>
    <i name="AMIX_MAG">      1.60000000</i>
    <i name="BMIX_MAG">      1.00000000</i>
    <separator name="electronic mixer details" >
     <i type="int" name="IMIX">     4</i>
     <i type="logical" name="MIXFIRST"> F  </i>
     <i type="int" name="MAXMIX">   -45</i>
     <i name="WC">    100.00000000</i>
     <i type="int" name="INIMIX">     1</i>
     <i type="int" name="MIXPRE">     1</i>
     <i type="int" name="MREMOVE">     5</i>
    </separator>
   </separator>
   <separator name="electronic dipolcorrection" >
    <i type="logical" name="LDIPOL"> T  </i>
    <i type="logical" name="LMONO"> F  </i>
    <i type="int" name="IDIPOL">     3</i>
    <i name="EPSILON">      1.00000000</i>
    <v name="DIPOL">   -100.00000000   -100.00000000   -100.00000000</v>
    <i name="EFIELD">      0.00000000</i>
    <i type="logical" name="LVACPOTAV"> F  </i>
   </separator>
  </separator>
  <separator name="grids" >
   <i type="int" name="NGX">    56</i>
   <i type="int" name="NGY">    56</i>
   <i type="int" name="NGZ">   140</i>
   <i type="int" name="NGXF">   112</i>
   <i type="int" name="NGYF">   112</i>
   <i type="int" name="NGZF">   280</i>
   <i type="logical" name="ADDGRID"> F  </i>
  </separator>
  <separator name="ionic" >
   <i type="int" name="NSW">     0</i>
   <i type="int" name="IBRION">    -1</i>
   <i type="int" name="MDALGO">     0</i>
   <i type="int" name="ISIF">     2</i>
   <i name="PSTRESS">      0.00000000</i>
   <i name="EDIFFG">     -0.03000000</i>
   <i type="int" name="NFREE">     0</i>
   <i name="POTIM">      0.50000000</i>
   <i name="SMASS">     -3.00000000</i>
   <i name="SCALEE">      1.00000000</i>
  </separator>
  <separator name="ionic md" >
   <i name="TEBEG">      0.00010000</i>
   <i name="TEEND">      0.00010000</i>
   <i type="int" name="NBLOCK">     1</i>
   <i type="int" name="KBLOCK">     1</i>
   <i type="int" name="NPACO">   256</i>
   <i name="APACO">     10.00000000</i>
  </separator>
  <separator name="symmetry" >
   <i type="int" name="ISYM">     0</i>
   <i name="SYMPREC">      0.00001000</i>
  </separator>
  <separator name="dos" >
   <i type="int" name="LORBIT">     0</i>
   <v name="RWIGS">     -1.00000000     -1.00000000     -1.00000000</v>
   <i type="int" name="NEDOS">   301</i>
   <i name="EMIN">     10.00000000</i>
   <i name="EMAX">    -10.00000000</i>
   <i name="EFERMI">      0.00000000</i>
  </separator>
  <separator name="writing" >
   <i type="int" name="NWRITE">     2</i>
   <i type="logical" name="LWAVE"> F  </i>
   <i type="logical" name="LDOWNSAMPLE"> F  </i>
   <i type="logical" name="LCHARG"> F  </i>
   <i type="logical" name="LPARD"> F  </i>
   <i type="logical" name="LVTOT"> F  </i>
   <i type="logical" name="LVHAR"> F  </i>
   <i type="logical" name="LELF"> F  </i>
   <i type="logical" name="LOPTICS"> F  </i>
   <v name="STM">      0.00000000      0.00000000      0.00000000      0.00000000      0.00000000      0.00000000      0.00000000</v>
  </separator>
  <separator name="performance" >
   <i type="int" name="NPAR">     2</i>
   <i type="int" name="NSIM">     4</i>
   <i type="int" name="NBLK">    -1</i>
   <i type="logical" name="LPLANE"> T  </i>
   <i type="logical" name="LSCALAPACK"> T  </i>
   <i type="logical" name="LSCAAWARE"> F  </i>
   <i type="logical" name="LSCALU"> F  </i>
   <i type="logical" name="LASYNC"> F  </i>
   <i type="logical" name="LORBITALREAL"> F  </i>
  </separator>
  <separator name="miscellaneous" >
   <i type="int" name="IDIOT">     3</i>
   <i type="int" name="PHON_NSTRUCT">    -1</i>
   <i type="logical" name="LMUSIC"> F  </i>
   <v name="POMASS">    106.42000000      1.00000000     32.06600000</v>
   <v name="DARWINR">      0.00000000      0.00000000      0.00000000</v>
   <v name="DARWINV">      1.00000000      1.00000000      1.00000000</v>
   <i type="logical" name="LCORR"> T  </i>
  </separator>
  <i type="logical" name="GGA_COMPAT"> T  </i>
  <i type="logical" name="LBERRY"> F  </i>
  <i type="int" name="ICORELEVEL">     0</i>
  <i type="logical" name="LDAU"> F  </i>
  <i type="int" name="I_CONSTRAINED_M">     0</i>
  <separator name="electronic exchange-correlation" >
   <i type="string" name="GGA    ">PE</i>
   <i type="string" name="XC_C">1</i>
   <i type="int" name="VOSKOWN">     0</i>
   <i type="logical" name="LHFCALC"> F  </i>
   <i type="string" name="PRECFOCK"></i>
   <i type="logical" name="LSYMGRAD"> F  </i>
   <i type="logical" name="LHFONE"> F  </i>
   <i type="logical" name="LRHFCALC"> F  </i>
   <i type="logical" name="LTHOMAS"> F  </i>
   <i type="logical" name="LMODELHF"> F  </i>
   <i type="logical" name="LFOCKACE"> F  </i>
   <i name="ENCUT4O">     -1.00000000</i>
   <i type="int" name="EXXOEP">     0</i>
   <i type="int" name="FOURORBIT">     0</i>
   <i name="AEXX">      0.00000000</i>
   <i name="HFALPHA">      0.00000000</i>
   <i name="MCALPHA">      0.00000000</i>
   <i name="ALDAX">      1.00000000</i>
   <i name="AGGAX">      1.00000000</i>
   <i name="AMGGAX">      1.00000000</i>
   <i name="ALDAC">      1.00000000</i>
   <i name="AGGAC">      1.00000000</i>
   <i name="AMGGAC">      1.00000000</i>
   <i type="int" name="NKREDX">     1</i>
   <i type="int" name="NKREDY">     1</i>
   <i type="int" name="NKREDZ">     1</i>
   <i type="logical" name="SHIFTRED"> F  </i>
   <i type="logical" name="ODDONLY"> F  </i>
   <i type="logical" name="EVENONLY"> F  </i>
   <i type="int" name="LMAXFOCK">     0</i>
   <i type="int" name="NMAXFOCKAE">     0</i>
   <i type="logical" name="LFOCKAEDFT"> F  </i>
   <i name="HFSCREEN">      0.00000000</i>
   <i name="HFSCREENC">      0.00000000</i>
   <i type="int" name="NBANDSGWLOW">     0</i>
  </separator>
  <separator name="vdW DFT" >
   <i type="logical" name="LUSE_VDW"> F  </i>
   <i type="int" name="IVDW_NL">    -1</i>
   <i type="logical" name="LSPIN_VDW"> F  </i>
   <i name="ZAB_VDW">     -0.84910000</i>
   <i name="GAMMA_VDW">      1.39626340</i>
   <i name="ALPHA_VDW">      0.00000000</i>
   <i name="PARAM1">      0.12340000</i>
   <i name="PARAM2">      1.00000000</i>
   <i name="BPARAM">      6.30000000</i>
   <i name="CPARAM">      0.00930000</i>
  </separator>
  <separator name="model GW" >
   <i type="int" name="MODEL_GW">     0</i>
   <i name="MODEL_EPS0">     21.39749142</i>
   <i name="MODEL_ALPHA">      1.00000000</i>
  </separator>
  <separator name="linear response parameters" >
   <i type="logical" name="LEPSILON"> F  </i>
   <i type="logical" name="LRPA"> F  </i>
   <i type="logical" name="LNABLA"> F  </i>
   <i type="logical" name="LVEL"> F  </i>
   <i name="CSHIFT">      0.10000000</i>
   <i name="OMEGAMAX">     -1.00000000</i>
   <i name="DEG_THRESHOLD">      0.00200000</i>
   <i name="RTIME">     -0.10000000</i>
   <i name="WPLASMAI">      0.00000000</i>
   <v name="DFIELD">      0.00000000      0.00000000      0.00000000</v>
   <v name="WPLASMA">      0.00000000      0.00000000      0.00000000      0.00000000      0.00000000      0.00000000      0.00000000      0.00000000      0.00000000</v>
  </separator>
  <separator name="orbital magnetization" >
   <i type="logical" name="NUCIND"> F  </i>
   <v name="MAGPOS">      0.00000000      0.00000000      0.00000000</v>
   <i type="logical" name="LNICSALL"> T  </i>
   <i type="logical" name="ORBITALMAG"> F  </i>
   <i type="logical" name="LMAGBLOCH"> F  </i>
   <i type="logical" name="LCHIMAG"> F  </i>
   <i type="logical" name="LGAUGE"> T  </i>
   <i type="int" name="MAGATOM">     0</i>
   <v name="MAGDIPOL">      0.00000000      0.00000000      0.00000000</v>
   <v name="AVECCONST">      0.00000000      0.00000000      0.00000000</v>
  </separator>
  <separator name="response functions" >
   <i type="logical" name="LALL_IN_ONE"> F  </i>
   <i type="int" name="IALL_IN_ONE">    -1</i>
   <i type="int" name="NBANDS_WAVE">    -1</i>
   <i type="logical" name="LFINITE_TEMPERATURE"> F  </i>
   <i type="logical" name="LADDER"> F  </i>
   <i type="logical" name="LRPAFORCE"> F  </i>
   <i type="logical" name="LFXC"> F  </i>
   <i type="logical" name="LHARTREE"> T  </i>
   <i type="int" name="IBSE">     0</i>
   <v type="int" name="KPOINT">    -1     0     0     0</v>
   <i type="logical" name="LTCTC"> F  </i>
   <i type="logical" name="LTCTE"> F  </i>
   <i type="logical" name="LTETE"> F  </i>
   <i type="logical" name="LTRIPLET"> F  </i>
   <i type="logical" name="LFXCEPS"> F  </i>
   <i type="logical" name="LFXHEG"> F  </i>
   <i type="int" name="NATURALO">     2</i>
   <i type="logical" name="LHOLEGF"> F  </i>
   <i type="logical" name="L2ORDER"> F  </i>
   <i type="logical" name="LDMP1"> F  </i>
   <i type="logical" name="LMP2LT"> F  </i>
   <i type="logical" name="LSMP2LT"> F  </i>
   <i type="logical" name="LGWLF"> F  </i>
   <i name="ENCUTGW">     -1.60000002</i>
   <i name="ENCUTGWSOFT">     -1.60000002</i>
   <i name="ENCUTLF">     -1.00000000</i>
   <i type="logical" name="ESF_SPLINES"> F  </i>
   <i name="ESF_CONV">      0.01000000</i>
   <i type="int" name="ESF_NINTER">    15</i>
   <i type="int" name="LMAXMP2">    -1</i>
   <i name="SCISSOR">      0.00000000</i>
   <i type="int" name="NOMEGA">     0</i>
   <i type="int" name="NOMEGAR">     0</i>
   <i type="int" name="NBANDSGW">    -1</i>
   <i type="int" name="NBANDSO">    -1</i>
   <i type="int" name="NBANDSV">    -1</i>
   <i type="int" name="NELMGW">     1</i>
   <i type="int" name="NELMHF">     1</i>
   <i type="int" name="DIM">     3</i>
   <i type="int" name="IESPILON">     4</i>
   <i type="int" name="ANTIRES">     0</i>
   <i name="OMEGAMAX">    -30.00000000</i>
   <i name="OMEGAMIN">    -30.00000000</i>
   <i name="OMEGATL">   -200.00000000</i>
   <i type="int" name="OMEGAGRID">     0</i>
   <i name="CSHIFT">     -0.10000000</i>
   <i type="logical" name="LSELFENERGY"> F  </i>
   <i type="logical" name="LSPECTRAL"> F  </i>
   <i type="logical" name="LSPECTRALGW"> F  </i>
   <i type="logical" name="LSINGLES"> F  </i>
   <i type="logical" name="LFERMIGW"> F  </i>
   <i type="logical" name="ODDONLYGW"> F  </i>
   <i type="logical" name="EVENONLYGW"> F  </i>
   <i type="int" name="NKREDLFX">     1</i>
   <i type="int" name="NKREDLFY">     1</i>
   <i type="int" name="NKREDLFZ">     1</i>
   <i type="int" name="MAXMEM">  2800</i>
   <i type="int" name="TELESCOPE">     0</i>
   <i type="int" name="NTAUPAR">    -1</i>
   <i type="int" name="NOMEGAPAR">    -1</i>
   <i name="DAMP_NEWTON">      0.80000001</i>
   <i name="LAMBDA">      1.00000000</i>
  </separator>
  <separator name="External order field" >
   <i name="OFIELD_KAPPA">      0.00000000</i>
   <v name="OFIELD_K">      0.00000000      0.00000000      0.00000000</v>
   <i name="OFIELD_Q6_NEAR">      0.00000000</i>
   <i name="OFIELD_Q6_FAR">      0.00000000</i>
   <i name="OFIELD_A">      0.00000000</i>
  </separator>
  <separator name="optional k-points parameters" >
   <i type="int" name="KPOINTS_OPT_MODE">     1</i>
   <i type="logical" name="LKPOINTS_OPT"> F  </i>
  </separator>
 </parameters>
 <atominfo>
  <atoms>      39 </atoms>
  <types>       3 </types>
  <array name="atoms" >
   <dimension dim="1">ion</dimension>
   <field type="string">element</field>
   <field type="int">atomtype</field>
   <set>
    <rc><c>Pd</c><c>   1</c></rc>
    <rc><c>Pd</c><c>   1</c></rc>
    <rc><c>Pd</c><c>   1</c></rc>
    <rc><c>Pd</c><c>   1</c></rc>
    <rc><c>Pd</c><c>   1</c></rc>
    <rc><c>Pd</c><c>   1</c></rc>
    <rc><c>Pd</c><c>   1</c></rc>
    <rc><c>Pd</c><c>   1</c></rc>
    <rc><c>Pd</c><c>   1</c></rc>
    <rc><c>Pd</c><c>   1</c></rc>
    <rc><c>Pd</c><c>   1</c></rc>
    <rc><c>Pd</c><c>   1</c></rc>
    <rc><c>Pd</c><c>   1</c></rc>
    <rc><c>Pd</c><c>   1</c></rc>
    <rc><c>Pd</c><c>   1</c></rc>
    <rc><c>Pd</c><c>   1</c></rc>
    <rc><c>Pd</c><c>   1</c></rc>
    <rc><c>Pd</c><c>   1</c></rc>
    <rc><c>Pd</c><c>   1</c></rc>
    <rc><c>Pd</c><c>   1</c></rc>
    <rc><c>Pd</c><c>   1</c></rc>
    <rc><c>Pd</c><c>   1</c></rc>
    <rc><c>Pd</c><c>   1</c></rc>
    <rc><c>Pd</c><c>   1</c></rc>
    <rc><c>Pd</c><c>   1</c></rc>
    <rc><c>Pd</c><c>   1</c></rc>
    <rc><c>Pd</c><c>   1</c></rc>
    <rc><c>Pd</c><c>   1</c></rc>
    <rc><c>Pd</c><c>   1</c></rc>
    <rc><c>Pd</c><c>   1</c></rc>
    <rc><c>Pd</c><c>   1</c></rc>
    <rc><c>Pd</c><c>   1</c></rc>
    <rc><c>Pd</c><c>   1</c></rc>
    <rc><c>Pd</c><c>   1</c></rc>
    <rc><c>Pd</c><c>   1</c></rc>
    <rc><c>Pd</c><c>   1</c></rc>
    <rc><c>H </c><c>   2</c></rc>
    <rc><c>H </c><c>   2</c></rc>
    <rc><c>S </c><c>   3</c></rc>
   </set>
  </array>
  <array name="atomtypes" >
   <dimension dim="1">type</dimension>
   <field type="int">atomspertype</field>
   <field type="string">element</field>
   <field>mass</field>
   <field>valence</field>
   <field type="string">pseudopotential</field>
   <set>
    <rc><c>  36</c><c>Pd</c><c>    106.42000000</c><c>     10.00000000</c><c>  PAW_PBE Pd 04Jan2005                  </c></rc>
    <rc><c>   2</c><c>H </c><c>      1.00000000</c><c>      1.00000000</c><c>  PAW_PBE H 15Jun2001                   </c></rc>
    <rc><c>   1</c><c>S </c><c>     32.06600000</c><c>      6.00000000</c><c>  PAW_PBE S 06Sep2000                   </c></rc>
   </set>
  </array>
 </atominfo>
 <structure name="initialpos" >
  <crystal>
   <varray name="basis" >
    <v>       8.35800215       0.00000000       0.00000000 </v>
    <v>       0.00000000       8.35800215       0.00000000 </v>
    <v>       0.00000000       0.00000000      19.91000000 </v>
   </varray>
   <i name="volume">   1390.83694200 </i>
   <varray name="rec_basis" >
    <v>       0.11964582       0.00000000       0.00000000 </v>
    <v>       0.00000000       0.11964582       0.00000000 </v>
    <v>       0.00000000       0.00000000       0.05022602 </v>
   </varray>
  </crystal>
  <varray name="positions" >
   <v>       0.16666667       0.16666667       0.00000000 </v>
   <v>       0.50000000       0.16666667       0.00000000 </v>
   <v>       0.83333333       0.16666667       0.00000000 </v>
   <v>       0.16666667       0.50000000       0.00000000 </v>
   <v>       0.50000000       0.50000000       0.00000000 </v>
   <v>       0.83333333       0.50000000       0.00000000 </v>
   <v>       0.16666667       0.83333333       0.00000000 </v>
   <v>       0.50000000       0.83333333       0.00000000 </v>
   <v>       0.83333333       0.83333333       0.00000000 </v>
   <v>       0.00000000       0.00000000       0.09894525 </v>
   <v>       0.33333333       0.00000000       0.09894525 </v>
   <v>       0.66666667       0.00000000       0.09894525 </v>
   <v>       0.00000000       0.33333333       0.09894525 </v>
   <v>       0.33333333       0.33333333       0.09894525 </v>
   <v>       0.66666667       0.33333333       0.09894525 </v>
   <v>       0.00000000       0.66666667       0.09894525 </v>
   <v>       0.33333333       0.66666667       0.09894525 </v>
   <v>       0.66666667       0.66666667       0.09894525 </v>
   <v>       0.16839306       0.16530295       0.19793060 </v>
   <v>       0.49977314       0.16760468       0.19913008 </v>
   <v>       0.83625016       0.16904259       0.19853530 </v>
   <v>       0.16978808       0.49892047       0.19841257 </v>
   <v>       0.50263205       0.49891993       0.19793861 </v>
   <v>       0.83624384       0.50164060       0.19781158 </v>
   <v>       0.16684749       0.83355769       0.19648384 </v>
   <v>       0.50232003       0.83487484       0.19636344 </v>
   <v>       0.83558319       0.83412151       0.19850733 </v>
   <v>       0.00096029       0.99860886       0.29636870 </v>
   <v>       0.33387445       0.99727103       0.29634665 </v>
   <v>       0.66742053       0.00154044       0.29729828 </v>
   <v>       0.99942113       0.33189545       0.29763889 </v>
   <v>       0.34225846       0.32487335       0.30343219 </v>
   <v>       0.67327807       0.33547246       0.29699599 </v>
   <v>       0.00657779       0.66881854       0.30039277 </v>
   <v>       0.34288169       0.67356282       0.29486274 </v>
   <v>       0.67248008       0.67105817       0.29562814 </v>
   <v>       0.51835806       0.25664582       0.34129681 </v>
   <v>       0.27075970       0.60602103       0.36974560 </v>
   <v>       0.16439911       0.45653691       0.37437235 </v>
  </varray>
  <varray name="selective"  type="logical" >
   <v type="logical" >  F  F  F </v>
   <v type="logical" >  F  F  F </v>
   <v type="logical" >  F  F  F </v>
   <v type="logical" >  F  F  F </v>
   <v type="logical" >  F  F  F </v>
   <v type="logical" >  F  F  F </v>
   <v type="logical" >  F  F  F </v>
   <v type="logical" >  F  F  F </v>
   <v type="logical" >  F  F  F </v>
   <v type="logical" >  F  F  F </v>
   <v type="logical" >  F  F  F </v>
   <v type="logical" >  F  F  F </v>
   <v type="logical" >  F  F  F </v>
   <v type="logical" >  F  F  F </v>
   <v type="logical" >  F  F  F </v>
   <v type="logical" >  F  F  F </v>
   <v type="logical" >  F  F  F </v>
   <v type="logical" >  F  F  F </v>
   <v type="logical" >  T  T  T </v>
   <v type="logical" >  T  T  T </v>
   <v type="logical" >  T  T  T </v>
   <v type="logical" >  T  T  T </v>
   <v type="logical" >  T  T  T </v>
   <v type="logical" >  T  T  T </v>
   <v type="logical" >  T  T  T </v>
   <v type="logical" >  T  T  T </v>
   <v type="logical" >  T  T  T </v>
   <v type="logical" >  T  T  T </v>
   <v type="logical" >  T  T  T </v>
   <v type="logical" >  T  T  T </v>
   <v type="logical" >  T  T  T </v>
   <v type="logical" >  T  T  T </v>
   <v type="logical" >  T  T  T </v>
   <v type="logical" >  T  T  T </v>
   <v type="logical" >  T  T  T </v>
   <v type="logical" >  T  T  T </v>
   <v type="logical" >  T  T  T </v>
   <v type="logical" >  T  T  T </v>
   <v type="logical" >  T  T  T </v>
  </varray>
  <nose>
   <v>      -3.00000000       0.00000000       0.00010000       0.00010000 </v>
  </nose>
 </structure>
 <calculation>
  <scstep>
   <time name="dav">    0.96    0.97</time>
   <time name="total">    1.01    1.02</time>
   <dipole>
    <v name="dipole">      0.00000000       0.00000000      -0.00006223 </v>
    <i name="Tr[quadrupol]">  -4496.63114127 </i>
    <i name="Echarged">      0.00000000 </i>
    <i name="Edipol_quadrupol">      0.00000000 </i>
    <i name="Eion">      0.00000000 </i>
   </dipole>
   <energy>
    <i name="alphaZ">    628.75285260 </i>
    <i name="ewald">  76033.04314711 </i>
    <i name="hartreedc">-106763.86932401 </i>
    <i name="XCdc">  -1045.77853895 </i>
    <i name="pawpsdc">  29264.33151030 </i>
    <i name="pawaedc"> -27021.15649540 </i>
    <i name="eentropy">      0.01650384 </i>
    <i name="bandstr">   1573.11724017 </i>
    <i name="atom">  29452.55580095 </i>
    <i name="e_fr_energy">   2121.01269661 </i>
    <i name="e_wo_entrp">   2120.99619276 </i>
    <i name="e_0_energy">   2121.00719532 </i>
   </energy>
  </scstep>
  <scstep>
   <time name="dav">    0.97    0.97</time>
   <time name="total">    0.97    0.97</time>
   <dipole>
    <v name="dipole">      0.00000000       0.00000000      -0.00006223 </v>
    <i name="Tr[quadrupol]">  -4496.63114127 </i>
    <i name="Echarged">      0.00000000 </i>
    <i name="Edipol_quadrupol">      0.00000000 </i>
    <i name="Eion">      0.00000000 </i>
   </dipole>
   <energy>
    <i name="e_fr_energy">    -60.46652429 </i>
    <i name="e_wo_entrp">    -60.47216412 </i>
    <i name="e_0_energy">    -60.46840423 </i>
   </energy>
  </scstep>
  <scstep>
   <time name="dav">    1.00    1.00</time>
   <time name="total">    1.00    1.01</time>
   <dipole>
    <v name="dipole">      0.00000000       0.00000000      -0.00006223 </v>
    <i name="Tr[quadrupol]">  -4496.63114127 </i>
    <i name="Echarged">      0.00000000 </i>
    <i name="Edipol_quadrupol">      0.00000000 </i>
    <i name="Eion">      0.00000000 </i>
   </dipole>
   <energy>
    <i name="e_fr_energy">   -191.00292530 </i>
    <i name="e_wo_entrp">   -190.95626746 </i>
    <i name="e_0_energy">   -190.98737268 </i>
   </energy>
  </scstep>
  <scstep>
   <time name="dav">    1.03    1.03</time>
   <time name="total">    1.03    1.03</time>
   <dipole>
    <v name="dipole">      0.00000000       0.00000000      -0.00006223 </v>
    <i name="Tr[quadrupol]">  -4496.63114127 </i>
    <i name="Echarged">      0.00000000 </i>
    <i name="Edipol_quadrupol">      0.00000000 </i>
    <i name="Eion">      0.00000000 </i>
   </dipole>
   <energy>
    <i name="e_fr_energy">   -196.32939041 </i>
    <i name="e_wo_entrp">   -196.27412239 </i>
    <i name="e_0_energy">   -196.31096774 </i>
   </energy>
  </scstep>
  <scstep>
   <time name="dav">    1.08    1.08</time>
   <time name="total">    1.13    1.13</time>
   <dipole>
    <v name="dipole">      0.00000000       0.00000000      -0.00006223 </v>
    <i name="Tr[quadrupol]">  -4496.63114127 </i>
    <i name="Echarged">      0.00000000 </i>
    <i name="Edipol_quadrupol">      0.00000000 </i>
    <i name="Eion">      0.00000000 </i>
   </dipole>
   <energy>
    <i name="e_fr_energy">   -196.50090490 </i>
    <i name="e_wo_entrp">   -196.44557823 </i>
    <i name="e_0_energy">   -196.48246268 </i>
   </energy>
  </scstep>
  <scstep>
   <time name="diag">    0.15    0.15</time>
   <time name="diis">    0.52    0.53</time>
   <time name="orth">    0.02    0.02</time>
   <time name="total">    0.78    0.79</time>
   <dipole>
    <v name="dipole">      0.00000000       0.00000000      -0.30645412 </v>
    <i name="Tr[quadrupol]">  -4500.03692650 </i>
    <i name="Echarged">      0.00000000 </i>
    <i name="Edipol_quadrupol">      0.00000000 </i>
    <i name="Eion">      0.00000000 </i>
   </dipole>
   <energy>
    <i name="e_fr_energy">   -190.84862276 </i>
    <i name="e_wo_entrp">   -190.81822839 </i>
    <i name="e_0_energy">   -190.83849130 </i>
   </energy>
  </scstep>
  <scstep>
   <time name="diag">    0.15    0.15</time>
   <time name="diis">    0.62    0.62</time>
   <time name="orth">    0.02    0.02</time>
   <time name="total">    0.88    0.88</time>
   <dipole>
    <v name="dipole">      0.00000000       0.00000000       2.43101097 </v>
    <i name="Tr[quadrupol]">  -4502.02096667 </i>
    <i name="Echarged">      0.00000000 </i>
    <i name="Edipol_quadrupol">      0.00000000 </i>
    <i name="Eion">      0.00000000 </i>
   </dipole>
   <energy>
    <i name="e_fr_energy">   -282.59172181 </i>
    <i name="e_wo_entrp">   -282.58318317 </i>
    <i name="e_0_energy">   -282.58887559 </i>
   </energy>
  </scstep>
  <scstep>
   <time name="diag">    0.15    0.15</time>
   <time name="diis">    0.55    0.55</time>
   <time name="orth">    0.02    0.02</time>
   <time name="total">    0.81    0.81</time>
   <dipole>
    <v name="dipole">      0.00000000       0.00000000       0.19112616 </v>
    <i name="Tr[quadrupol]">  -4505.29130731 </i>
    <i name="Echarged">      0.00000000 </i>
    <i name="Edipol_quadrupol">      0.00000000 </i>
    <i name="Eion">      0.00000000 </i>
   </dipole>
   <energy>
    <i name="e_fr_energy">   -209.20328759 </i>
    <i name="e_wo_entrp">   -209.17572183 </i>
    <i name="e_0_energy">   -209.19409900 </i>
   </energy>
  </scstep>
  <scstep>
   <time name="diag">    0.15    0.15</time>
   <time name="diis">    0.54    0.55</time>
   <time name="orth">    0.02    0.02</time>
   <time name="total">    0.80    0.81</time>
   <dipole>
    <v name="dipole">      0.00000000       0.00000000      -0.06892344 </v>
    <i name="Tr[quadrupol]">  -4502.87487099 </i>
    <i name="Echarged">      0.00000000 </i>
    <i name="Edipol_quadrupol">      0.00000000 </i>
    <i name="Eion">      0.00000000 </i>
   </dipole>
   <energy>
    <i name="e_fr_energy">   -190.84934919 </i>
    <i name="e_wo_entrp">   -190.84168551 </i>
    <i name="e_0_energy">   -190.84679463 </i>
   </energy>
  </scstep>
  <scstep>
   <time name="diag">    0.15    0.15</time>
   <time name="diis">    0.53    0.53</time>
   <time name="orth">    0.02    0.02</time>
   <time name="total">    0.79    0.79</time>
   <dipole>
    <v name="dipole">      0.00000000       0.00000000       0.02332052 </v>
    <i name="Tr[quadrupol]">  -4503.37971996 </i>
    <i name="Echarged">      0.00000000 </i>
    <i name="Edipol_quadrupol">      0.00000000 </i>
    <i name="Eion">      0.00000000 </i>
   </dipole>
   <energy>
    <i name="e_fr_energy">   -188.91991488 </i>
    <i name="e_wo_entrp">   -188.90530498 </i>
    <i name="e_0_energy">   -188.91504492 </i>
   </energy>
  </scstep>
  <scstep>
   <time name="diag">    0.15    0.15</time>
   <time name="diis">    0.53    0.53</time>
   <time name="orth">    0.02    0.02</time>
   <time name="total">    0.79    0.79</time>
   <dipole>
    <v name="dipole">      0.00000000       0.00000000      -0.05064010 </v>
    <i name="Tr[quadrupol]">  -4503.99959296 </i>
    <i name="Echarged">      0.00000000 </i>
    <i name="Edipol_quadrupol">      0.00000000 </i>
    <i name="Eion">      0.00000000 </i>
   </dipole>
   <energy>
    <i name="e_fr_energy">   -188.35977508 </i>
    <i name="e_wo_entrp">   -188.34605326 </i>
    <i name="e_0_energy">   -188.35520114 </i>
   </energy>
  </scstep>
  <scstep>
   <time name="diag">    0.15    0.15</time>
   <time name="diis">    0.53    0.53</time>
   <time name="orth">    0.02    0.02</time>
   <time name="total">    0.79    0.79</time>
   <dipole>
    <v name="dipole">      0.00000000       0.00000000      -0.08402371 </v>
    <i name="Tr[quadrupol]">  -4504.17691014 </i>
    <i name="Echarged">      0.00000000 </i>
    <i name="Edipol_quadrupol">      0.00000000 </i>
    <i name="Eion">      0.00000000 </i>
   </dipole>
   <energy>
    <i name="e_fr_energy">   -188.30035291 </i>
    <i name="e_wo_entrp">   -188.29175795 </i>
    <i name="e_0_energy">   -188.29748792 </i>
   </energy>
  </scstep>
  <scstep>
   <time name="diag">    0.15    0.15</time>
   <time name="diis">    0.53    0.53</time>
   <time name="orth">    0.02    0.02</time>
   <time name="total">    0.79    0.79</time>
   <dipole>
    <v name="dipole">      0.00000000       0.00000000      -0.04018770 </v>
    <i name="Tr[quadrupol]">  -4504.62874023 </i>
    <i name="Echarged">      0.00000000 </i>
    <i name="Edipol_quadrupol">      0.00000000 </i>
    <i name="Eion">      0.00000000 </i>
   </dipole>
   <energy>
    <i name="e_fr_energy">   -187.91155048 </i>
    <i name="e_wo_entrp">   -187.87664139 </i>
    <i name="e_0_energy">   -187.89991412 </i>
   </energy>
  </scstep>
  <scstep>
   <time name="diag">    0.15    0.15</time>
   <time name="diis">    0.52    0.53</time>
   <time name="orth">    0.02    0.02</time>
   <time name="total">    0.78    0.79</time>
   <dipole>
    <v name="dipole">      0.00000000       0.00000000      -0.04026977 </v>
    <i name="Tr[quadrupol]">  -4504.88356379 </i>
    <i name="Echarged">      0.00000000 </i>
    <i name="Edipol_quadrupol">      0.00000000 </i>
    <i name="Eion">      0.00000000 </i>
   </dipole>
   <energy>
    <i name="e_fr_energy">   -187.70652039 </i>
    <i name="e_wo_entrp">   -187.66308630 </i>
    <i name="e_0_energy">   -187.69204236 </i>
   </energy>
  </scstep>
  <scstep>
   <time name="diag">    0.15    0.15</time>
   <time name="diis">    0.53    0.53</time>
   <time name="orth">    0.02    0.02</time>
   <time name="total">    0.79    0.79</time>
   <dipole>
    <v name="dipole">      0.00000000       0.00000000      -0.04423915 </v>
    <i name="Tr[quadrupol]">  -4505.09012352 </i>
    <i name="Echarged">      0.00000000 </i>
    <i name="Edipol_quadrupol">      0.00000000 </i>
    <i name="Eion">      0.00000000 </i>
   </dipole>
   <energy>
    <i name="e_fr_energy">   -187.64700990 </i>
    <i name="e_wo_entrp">   -187.58496077 </i>
    <i name="e_0_energy">   -187.62632685 </i>
   </energy>
  </scstep>
  <scstep>
   <time name="diag">    0.15    0.15</time>
   <time name="diis">    0.54    0.54</time>
   <time name="orth">    0.02    0.02</time>
   <time name="total">    0.80    0.80</time>
   <dipole>
    <v name="dipole">      0.00000000       0.00000000      -0.03846010 </v>
    <i name="Tr[quadrupol]">  -4505.33395826 </i>
    <i name="Echarged">      0.00000000 </i>
    <i name="Edipol_quadrupol">      0.00000000 </i>
    <i name="Eion">      0.00000000 </i>
   </dipole>
   <energy>
    <i name="e_fr_energy">   -187.62552066 </i>
    <i name="e_wo_entrp">   -187.56341619 </i>
    <i name="e_0_energy">   -187.60481917 </i>
   </energy>
  </scstep>
  <scstep>
   <time name="diag">    0.15    0.15</time>
   <time name="diis">    0.54    0.54</time>
   <time name="orth">    0.02    0.02</time>
   <time name="total">    0.79    0.80</time>
   <dipole>
    <v name="dipole">      0.00000000       0.00000000       0.00260080 </v>
    <i name="Tr[quadrupol]">  -4505.47018925 </i>
    <i name="Echarged">      0.00000000 </i>
    <i name="Edipol_quadrupol">      0.00000000 </i>
    <i name="Eion">      0.00000000 </i>
   </dipole>
   <energy>
    <i name="e_fr_energy">   -187.62758154 </i>
    <i name="e_wo_entrp">   -187.56696032 </i>
    <i name="e_0_energy">   -187.60737446 </i>
   </energy>
  </scstep>
  <scstep>
   <time name="diag">    0.15    0.15</time>
   <time name="diis">    0.56    0.56</time>
   <time name="orth">    0.02    0.02</time>
   <time name="total">    0.82    0.82</time>
   <dipole>
    <v name="dipole">      0.00000000       0.00000000      -0.01805860 </v>
    <i name="Tr[quadrupol]">  -4505.79704219 </i>
    <i name="Echarged">      0.00000000 </i>
    <i name="Edipol_quadrupol">      0.00000000 </i>
    <i name="Eion">      0.00000000 </i>
   </dipole>
   <energy>
    <i name="e_fr_energy">   -187.61775499 </i>
    <i name="e_wo_entrp">   -187.55245500 </i>
    <i name="e_0_energy">   -187.59598832 </i>
   </energy>
  </scstep>
  <scstep>
   <time name="diag">    0.15    0.15</time>
   <time name="diis">    0.55    0.55</time>
   <time name="orth">    0.02    0.02</time>
   <time name="total">    0.80    0.81</time>
   <dipole>
    <v name="dipole">      0.00000000       0.00000000      -0.01545569 </v>
    <i name="Tr[quadrupol]">  -4506.14780929 </i>
    <i name="Echarged">      0.00000000 </i>
    <i name="Edipol_quadrupol">      0.00000000 </i>
    <i name="Eion">      0.00000000 </i>
   </dipole>
   <energy>
    <i name="e_fr_energy">   -187.60595901 </i>
    <i name="e_wo_entrp">   -187.54022513 </i>
    <i name="e_0_energy">   -187.58404772 </i>
   </energy>
  </scstep>
  <scstep>
   <time name="diag">    0.15    0.15</time>
   <time name="diis">    0.53    0.54</time>
   <time name="orth">    0.02    0.02</time>
   <time name="total">    0.79    0.80</time>
   <dipole>
    <v name="dipole">      0.00000000       0.00000000      -0.00803414 </v>
    <i name="Tr[quadrupol]">  -4506.31909365 </i>
    <i name="Echarged">      0.00000000 </i>
    <i name="Edipol_quadrupol">      0.00000000 </i>
    <i name="Eion">      0.00000000 </i>
   </dipole>
   <energy>
    <i name="e_fr_energy">   -187.60544221 </i>
    <i name="e_wo_entrp">   -187.54118888 </i>
    <i name="e_0_energy">   -187.58402443 </i>
   </energy>
  </scstep>
  <scstep>
   <time name="diag">    0.15    0.15</time>
   <time name="diis">    0.55    0.55</time>
   <time name="orth">    0.02    0.02</time>
   <time name="total">    0.80    0.81</time>
   <dipole>
    <v name="dipole">      0.00000000       0.00000000      -0.00031657 </v>
    <i name="Tr[quadrupol]">  -4506.50613415 </i>
    <i name="Echarged">      0.00000000 </i>
    <i name="Edipol_quadrupol">      0.00000000 </i>
    <i name="Eion">      0.00000000 </i>
   </dipole>
   <energy>
    <i name="e_fr_energy">   -187.60458349 </i>
    <i name="e_wo_entrp">   -187.54021597 </i>
    <i name="e_0_energy">   -187.58312765 </i>
   </energy>
  </scstep>
  <scstep>
   <time name="diag">    0.15    0.15</time>
   <time name="diis">    0.55    0.55</time>
   <time name="orth">    0.02    0.02</time>
   <time name="total">    0.81    0.81</time>
   <dipole>
    <v name="dipole">      0.00000000       0.00000000       0.00013721 </v>
    <i name="Tr[quadrupol]">  -4506.65728730 </i>
    <i name="Echarged">      0.00000000 </i>
    <i name="Edipol_quadrupol">      0.00000000 </i>
    <i name="Eion">      0.00000000 </i>
   </dipole>
   <energy>
    <i name="e_fr_energy">   -187.60384860 </i>
    <i name="e_wo_entrp">   -187.53870497 </i>
    <i name="e_0_energy">   -187.58213406 </i>
   </energy>
  </scstep>
  <scstep>
   <time name="diag">    0.15    0.15</time>
   <time name="diis">    0.58    0.58</time>
   <time name="orth">    0.02    0.02</time>
   <time name="total">    0.84    0.84</time>
   <dipole>
    <v name="dipole">      0.00000000       0.00000000      -0.00379327 </v>
    <i name="Tr[quadrupol]">  -4506.93736896 </i>
    <i name="Echarged">      0.00000000 </i>
    <i name="Edipol_quadrupol">      0.00000000 </i>
    <i name="Eion">      0.00000000 </i>
   </dipole>
   <energy>
    <i name="e_fr_energy">   -187.60354190 </i>
    <i name="e_wo_entrp">   -187.53701244 </i>
    <i name="e_0_energy">   -187.58136542 </i>
   </energy>
  </scstep>
  <scstep>
   <time name="diag">    0.15    0.15</time>
   <time name="diis">    0.49    0.49</time>
   <time name="orth">    0.02    0.02</time>
   <time name="total">    0.75    0.75</time>
   <dipole>
    <v name="dipole">      0.00000000       0.00000000      -0.00255582 </v>
    <i name="Tr[quadrupol]">  -4507.12970216 </i>
    <i name="Echarged">      0.00000000 </i>
    <i name="Edipol_quadrupol">      0.00000000 </i>
    <i name="Eion">      0.00000000 </i>
   </dipole>
   <energy>
    <i name="e_fr_energy">   -187.60317404 </i>
    <i name="e_wo_entrp">   -187.53737659 </i>
    <i name="e_0_energy">   -187.58124156 </i>
   </energy>
  </scstep>
  <scstep>
   <time name="diag">    0.15    0.15</time>
   <time name="diis">    0.37    0.37</time>
   <time name="orth">    0.02    0.02</time>
   <time name="total">    0.62    0.63</time>
   <dipole>
    <v name="dipole">      0.00000000       0.00000000       0.00072047 </v>
    <i name="Tr[quadrupol]">  -4507.22015475 </i>
    <i name="Echarged">      0.00000000 </i>
    <i name="Edipol_quadrupol">      0.00000000 </i>
    <i name="Eion">      0.00000000 </i>
   </dipole>
   <energy>
    <i name="e_fr_energy">   -187.60291478 </i>
    <i name="e_wo_entrp">   -187.53762313 </i>
    <i name="e_0_energy">   -187.58115090 </i>
   </energy>
  </scstep>
  <scstep>
   <time name="diag">    0.15    0.15</time>
   <time name="diis">    0.34    0.35</time>
   <time name="orth">    0.02    0.02</time>
   <time name="total">    0.60    0.61</time>
   <dipole>
    <v name="dipole">      0.00000000       0.00000000       0.00236204 </v>
    <i name="Tr[quadrupol]">  -4507.32794759 </i>
    <i name="Echarged">      0.00000000 </i>
    <i name="Edipol_quadrupol">      0.00000000 </i>
    <i name="Eion">      0.00000000 </i>
   </dipole>
   <energy>
    <i name="e_fr_energy">   -187.60307521 </i>
    <i name="e_wo_entrp">   -187.53793935 </i>
    <i name="e_0_energy">   -187.58136326 </i>
   </energy>
  </scstep>
  <scstep>
   <time name="diag">    0.15    0.15</time>
   <time name="diis">    0.33    0.33</time>
   <time name="orth">    0.02    0.02</time>
   <time name="total">    0.55    0.55</time>
   <dipole>
    <v name="dipole">      0.00000000       0.00000000      -0.00009740 </v>
    <i name="Tr[quadrupol]">  -4507.44104117 </i>
    <i name="Echarged">      0.00000000 </i>
    <i name="Edipol_quadrupol">      0.00000000 </i>
    <i name="Eion">      0.00000000 </i>
   </dipole>
   <energy>
    <i name="alphaZ">    628.75296769 </i>
    <i name="ewald">  76033.04314711 </i>
    <i name="hartreedc">-106812.16174958 </i>
    <i name="XCdc">  -1052.54277811 </i>
    <i name="pawpsdc">  34335.02173878 </i>
    <i name="pawaedc"> -32165.08753869 </i>
    <i name="eentropy">     -0.06545997 </i>
    <i name="bandstr">   -607.11926691 </i>
    <i name="atom">  29452.55580095 </i>
    <i name="e_fr_energy">   -187.60313874 </i>
    <i name="e_wo_entrp">   -187.53767877 </i>
    <i name="e_0_energy">   -187.58131875 </i>
   </energy>
  </scstep>
  <structure>
   <crystal>
    <varray name="basis" >
     <v>       8.35800215       0.00000000       0.00000000 </v>
     <v>       0.00000000       8.35800215       0.00000000 </v>
     <v>       0.00000000       0.00000000      19.91000000 </v>
    </varray>
    <i name="volume">   1390.83694200 </i>
    <varray name="rec_basis" >
     <v>       0.11964582       0.00000000       0.00000000 </v>
     <v>       0.00000000       0.11964582       0.00000000 </v>
     <v>       0.00000000       0.00000000       0.05022602 </v>
    </varray>
   </crystal>
   <varray name="positions" >
    <v>       0.16666667       0.16666667       0.00000000 </v>
    <v>       0.50000000       0.16666667       0.00000000 </v>
    <v>       0.83333333       0.16666667       0.00000000 </v>
    <v>       0.16666667       0.50000000       0.00000000 </v>
    <v>       0.50000000       0.50000000       0.00000000 </v>
    <v>       0.83333333       0.50000000       0.00000000 </v>
    <v>       0.16666667       0.83333333       0.00000000 </v>
    <v>       0.50000000       0.83333333       0.00000000 </v>
    <v>       0.83333333       0.83333333       0.00000000 </v>
    <v>       0.00000000       0.00000000       0.09894525 </v>
    <v>       0.33333333       0.00000000       0.09894525 </v>
    <v>       0.66666667       0.00000000       0.09894525 </v>
    <v>       0.00000000       0.33333333       0.09894525 </v>
    <v>       0.33333333       0.33333333       0.09894525 </v>
    <v>       0.66666667       0.33333333       0.09894525 </v>
    <v>       0.00000000       0.66666667       0.09894525 </v>
    <v>       0.33333333       0.66666667       0.09894525 </v>
    <v>       0.66666667       0.66666667       0.09894525 </v>
    <v>       0.16839306       0.16530295       0.19793060 </v>
    <v>       0.49977314       0.16760468       0.19913008 </v>
    <v>       0.83625016       0.16904259       0.19853530 </v>
    <v>       0.16978808       0.49892047       0.19841257 </v>
    <v>       0.50263205       0.49891993       0.19793861 </v>
    <v>       0.83624384       0.50164060       0.19781158 </v>
    <v>       0.16684749       0.83355769       0.19648384 </v>
    <v>       0.50232003       0.83487484       0.19636344 </v>
    <v>       0.83558319       0.83412151       0.19850733 </v>
    <v>       0.00096029       0.99860886       0.29636870 </v>
    <v>       0.33387445       0.99727103       0.29634665 </v>
    <v>       0.66742053       0.00154044       0.29729828 </v>
    <v>       0.99942113       0.33189545       0.29763889 </v>
    <v>       0.34225846       0.32487335       0.30343219 </v>
    <v>       0.67327807       0.33547246       0.29699599 </v>
    <v>       0.00657779       0.66881854       0.30039277 </v>
    <v>       0.34288169       0.67356282       0.29486274 </v>
    <v>       0.67248008       0.67105817       0.29562814 </v>
    <v>       0.51835806       0.25664582       0.34129681 </v>
    <v>       0.27075970       0.60602103       0.36974560 </v>
    <v>       0.16439911       0.45653691       0.37437235 </v>
   </varray>
  </structure>
  <varray name="forces" >
   <v>       0.00200160      -0.00514062       0.11897696 </v>
   <v>      -0.03825046       0.04258870       0.09258563 </v>
   <v>       0.02804391       0.05013912       0.10431960 </v>
   <v>      -0.00097921      -0.01947918       0.07493313 </v>
   <v>      -0.00898091      -0.00424999       0.11598072 </v>
   <v>      -0.00451065      -0.00859510       0.12575644 </v>
   <v>       0.00729343      -0.00431832       0.08786265 </v>
   <v>      -0.05108800      -0.02522670       0.07641197 </v>
   <v>       0.03822152      -0.03273569       0.05413548 </v>
   <v>      -0.08518973       0.00724302      -0.07799248 </v>
   <v>       0.07351253       0.05518295      -0.06063631 </v>
   <v>       0.05928072       0.05580875      -0.13444884 </v>
   <v>       0.05103186       0.04184363      -0.04436957 </v>
   <v>       0.00961232      -0.00501355      -0.06607322 </v>
   <v>       0.04394916      -0.07304218       0.00689990 </v>
   <v>       0.05165390       0.00432370      -0.12466180 </v>
   <v>       0.00619517      -0.05466944      -0.06401569 </v>
   <v>       0.07882803       0.02632475      -0.04420814 </v>
   <v>       0.01183701       0.06053913      -0.05994038 </v>
   <v>      -0.00705309       0.08763921      -0.01795229 </v>
   <v>      -0.02704852      -0.05776527      -0.03120227 </v>
   <v>       0.02349522      -0.06667786      -0.07378064 </v>
   <v>       0.05735475       0.00006536      -0.09510322 </v>
   <v>      -0.04191808       0.01785419      -0.02247099 </v>
   <v>       0.01595301       0.00149590       0.04649618 </v>
   <v>       0.02473438      -0.01216476       0.09986515 </v>
   <v>       0.01989841      -0.03755120       0.03430263 </v>
   <v>      -0.02848363      -0.01428482      -0.00250225 </v>
   <v>       0.01913260      -0.09052458      -0.04817271 </v>
   <v>       0.03687520      -0.03480839      -0.05374579 </v>
   <v>       0.06153264      -0.04676436      -0.08372607 </v>
   <v>      -0.09306199       0.10062298      -0.10249718 </v>
   <v>      -0.02346851      -0.04408268       0.02438643 </v>
   <v>       0.06836505      -0.15664362       0.09613467 </v>
   <v>      -0.01847566      -0.02998689       0.00025205 </v>
   <v>      -0.02640436       0.01495186      -0.01182859 </v>
   <v>      -0.00519057      -0.02202690       0.02346211 </v>
   <v>      -0.11385978       0.00102809       0.18400826 </v>
   <v>      -0.21483928       0.27810077      -0.14744152 </v>
  </varray>
  <varray name="stress" >
   <v>     -24.71196141       0.69292854      -1.89873173 </v>
   <v>       0.69292855     -24.92149169       0.27637865 </v>
   <v>      -1.89873185       0.27637860      -4.70723052 </v>
  </varray>
  <energy>
   <i name="e_fr_energy">   -187.60313874 </i>
   <i name="e_wo_entrp">   -187.53767877 </i>
   <i name="e_0_energy">   -187.58131875 </i>
  </energy>
  <time name="totalsc">   23.02   23.14</time>
  <eigenvalues>
   <array>
    <dimension dim="1">band</dimension>
    <dimension dim="2">kpoint</dimension>
    <dimension dim="3">spin</dimension>
    <field>eigene</field>
    <field>occ</field>
    <set>
     <set comment="spin 1">
      <set comment="kpoint 1">
       <r>  -13.2185    1.0000 </r>
       <r>   -6.3280    1.0000 </r>
       <r>   -5.4602    1.0000 </r>
       <r>   -5.0572    1.0000 </r>
       <r>   -4.4102    1.0000 </r>
       <r>   -4.2873    1.0000 </r>
       <r>   -4.1877    1.0000 </r>
       <r>   -4.0592    1.0000 </r>
       <r>   -3.9954    1.0000 </r>
       <r>   -3.8435    1.0000 </r>
       <r>   -3.8256    1.0000 </r>
       <r>   -3.8177    1.0000 </r>
       <r>   -3.7915    1.0000 </r>
       <r>   -3.7761    1.0000 </r>
       <r>   -3.7471    1.0000 </r>
       <r>   -3.7084    1.0000 </r>
       <r>   -3.6425    1.0000 </r>
       <r>   -3.6188    1.0000 </r>
       <r>   -3.6117    1.0000 </r>
       <r>   -3.5862    1.0000 </r>
       <r>   -3.5549    1.0000 </r>
       <r>   -3.5266    1.0000 </r>
       <r>   -3.4074    1.0000 </r>
       <r>   -3.4006    1.0000 </r>
       <r>   -3.3918    1.0000 </r>
       <r>   -3.3749    1.0000 </r>
       <r>   -3.2941    1.0000 </r>
       <r>   -3.2663    1.0000 </r>
       <r>   -3.2486    1.0000 </r>
       <r>   -3.2308    1.0000 </r>
       <r>   -3.2132    1.0000 </r>
       <r>   -3.2031    1.0000 </r>
       <r>   -3.1676    1.0000 </r>
       <r>   -3.1553    1.0000 </r>
       <r>   -3.1233    1.0000 </r>
       <r>   -3.0627    1.0000 </r>
       <r>   -3.0197    1.0000 </r>
       <r>   -2.9768    1.0000 </r>
       <r>   -2.9448    1.0000 </r>
       <r>   -2.9357    1.0000 </r>
       <r>   -2.9234    1.0000 </r>
       <r>   -2.9120    1.0000 </r>
       <r>   -2.8865    1.0000 </r>
       <r>   -2.8707    1.0000 </r>
       <r>   -2.8328    1.0000 </r>
       <r>   -2.7842    1.0000 </r>
       <r>   -2.7132    1.0000 </r>
       <r>   -2.6752    1.0000 </r>
       <r>   -2.6460    1.0000 </r>
       <r>   -2.6268    1.0000 </r>
       <r>   -2.5812    1.0000 </r>
       <r>   -2.5614    1.0000 </r>
       <r>   -2.5519    1.0000 </r>
       <r>   -2.5397    1.0000 </r>
       <r>   -2.4908    1.0000 </r>
       <r>   -2.4678    1.0000 </r>
       <r>   -2.4448    1.0000 </r>
       <r>   -2.4093    1.0000 </r>
       <r>   -2.4025    1.0000 </r>
       <r>   -2.3293    1.0000 </r>
       <r>   -2.3027    1.0000 </r>
       <r>   -2.2907    1.0000 </r>
       <r>   -2.2579    1.0000 </r>
       <r>   -2.1951    1.0000 </r>
       <r>   -2.1715    1.0000 </r>
       <r>   -2.1412    1.0000 </r>
       <r>   -2.1139    1.0000 </r>
       <r>   -2.0979    1.0000 </r>
       <r>   -2.0646    1.0000 </r>
       <r>   -2.0427    1.0000 </r>
       <r>   -1.9911    1.0000 </r>
       <r>   -1.9821    1.0000 </r>
       <r>   -1.9756    1.0000 </r>
       <r>   -1.9183    1.0000 </r>
       <r>   -1.8996    1.0000 </r>
       <r>   -1.8485    1.0000 </r>
       <r>   -1.7925    1.0000 </r>
       <r>   -1.7699    1.0000 </r>
       <r>   -1.7643    1.0000 </r>
       <r>   -1.7404    1.0000 </r>
       <r>   -1.7328    1.0000 </r>
       <r>   -1.6997    1.0000 </r>
       <r>   -1.6952    1.0000 </r>
       <r>   -1.6736    1.0000 </r>
       <r>   -1.6372    1.0000 </r>
       <r>   -1.6230    1.0000 </r>
       <r>   -1.6209    1.0000 </r>
       <r>   -1.6117    1.0000 </r>
       <r>   -1.5835    1.0000 </r>
       <r>   -1.5700    1.0000 </r>
       <r>   -1.5251    1.0000 </r>
       <r>   -1.5128    1.0000 </r>
       <r>   -1.4906    1.0000 </r>
       <r>   -1.4820    1.0000 </r>
       <r>   -1.4587    1.0000 </r>
       <r>   -1.4348    1.0000 </r>
       <r>   -1.3984    1.0000 </r>
       <r>   -1.3813    1.0000 </r>
       <r>   -1.3522    1.0000 </r>
       <r>   -1.3371    1.0000 </r>
       <r>   -1.3091    1.0000 </r>
       <r>   -1.2834    1.0000 </r>
       <r>   -1.2722    1.0000 </r>
       <r>   -1.2472    1.0000 </r>
       <r>   -1.1645    1.0000 </r>
       <r>   -1.1096    1.0000 </r>
       <r>   -1.1080    1.0000 </r>
       <r>   -1.0817    1.0000 </r>
       <r>   -1.0626    1.0000 </r>
       <r>   -1.0488    1.0000 </r>
       <r>   -1.0234    1.0000 </r>
       <r>   -0.9503    1.0000 </r>
       <r>   -0.9226    1.0000 </r>
       <r>   -0.9158    1.0000 </r>
       <r>   -0.9013    1.0000 </r>
       <r>   -0.8748    1.0000 </r>
       <r>   -0.8614    1.0000 </r>
       <r>   -0.8408    1.0000 </r>
       <r>   -0.8255    1.0000 </r>
       <r>   -0.8154    1.0000 </r>
       <r>   -0.7991    1.0000 </r>
       <r>   -0.7862    1.0000 </r>
       <r>   -0.7720    1.0000 </r>
       <r>   -0.7350    1.0000 </r>
       <r>   -0.7194    1.0000 </r>
       <r>   -0.7025    1.0000 </r>
       <r>   -0.6767    1.0000 </r>
       <r>   -0.6569    1.0000 </r>
       <r>   -0.6353    1.0000 </r>
       <r>   -0.6198    1.0000 </r>
       <r>   -0.5731    1.0000 </r>
       <r>   -0.5544    1.0000 </r>
       <r>   -0.5230    1.0000 </r>
       <r>   -0.4989    1.0000 </r>
       <r>   -0.4471    1.0000 </r>
       <r>   -0.4382    1.0000 </r>
       <r>   -0.4271    1.0000 </r>
       <r>   -0.4218    1.0000 </r>
       <r>   -0.3791    1.0000 </r>
       <r>   -0.3699    1.0000 </r>
       <r>   -0.3353    1.0000 </r>
       <r>   -0.2988    1.0000 </r>
       <r>   -0.2650    1.0000 </r>
       <r>   -0.2385    1.0000 </r>
       <r>   -0.2002    1.0000 </r>
       <r>   -0.1885    1.0000 </r>
       <r>   -0.1675    1.0000 </r>
       <r>   -0.1520    1.0000 </r>
       <r>   -0.1155    1.0000 </r>
       <r>   -0.0954    1.0000 </r>
       <r>   -0.0466    1.0000 </r>
       <r>   -0.0023    1.0000 </r>
       <r>    0.0183    1.0000 </r>
       <r>    0.0420    1.0000 </r>
       <r>    0.0645    1.0000 </r>
       <r>    0.0946    1.0000 </r>
       <r>    0.1142    1.0000 </r>
       <r>    0.1213    1.0000 </r>
       <r>    0.1418    1.0000 </r>
       <r>    0.1654    1.0000 </r>
       <r>    0.1869    1.0000 </r>
       <r>    0.1975    1.0000 </r>
       <r>    0.2241    1.0000 </r>
       <r>    0.2459    1.0000 </r>
       <r>    0.2865    1.0000 </r>
       <r>    0.3112    1.0000 </r>
       <r>    0.3313    1.0000 </r>
       <r>    0.3501    1.0000 </r>
       <r>    0.3647    1.0000 </r>
       <r>    0.4076    1.0003 </r>
       <r>    0.4100    1.0004 </r>
       <r>    0.4375    1.0014 </r>
       <r>    0.4442    1.0018 </r>
       <r>    0.4590    1.0033 </r>
       <r>    0.4700    1.0050 </r>
       <r>    0.4935    1.0108 </r>
       <r>    0.5170    1.0200 </r>
       <r>    0.5299    1.0259 </r>
       <r>    0.5608    1.0355 </r>
       <r>    0.5870    1.0214 </r>
       <r>    0.6287    0.8965 </r>
       <r>    0.6457    0.7980 </r>
       <r>    0.6528    0.7484 </r>
       <r>    0.6844    0.4950 </r>
       <r>    0.6923    0.4283 </r>
       <r>    0.6958    0.3992 </r>
       <r>    0.7360    0.1180 </r>
       <r>    0.7561    0.0324 </r>
       <r>    0.7797   -0.0203 </r>
       <r>    0.8612   -0.0154 </r>
       <r>    0.9532   -0.0005 </r>
       <r>    0.9855   -0.0001 </r>
       <r>    1.3176   -0.0000 </r>
       <r>    1.5067   -0.0000 </r>
       <r>    1.5781   -0.0000 </r>
       <r>    1.6235   -0.0000 </r>
       <r>    1.8136   -0.0000 </r>
       <r>    1.8405   -0.0000 </r>
       <r>    2.0434   -0.0000 </r>
       <r>    2.2550   -0.0000 </r>
       <r>    2.2993   -0.0000 </r>
       <r>    2.5424   -0.0000 </r>
       <r>    2.8639    0.0000 </r>
       <r>    3.2223    0.0000 </r>
       <r>    3.3705    0.0000 </r>
       <r>    3.4759    0.0000 </r>
       <r>    3.5791    0.0000 </r>
       <r>    3.7981    0.0000 </r>
       <r>    3.9081    0.0000 </r>
       <r>    4.1181    0.0000 </r>
       <r>    4.2355    0.0000 </r>
       <r>    4.6021    0.0000 </r>
       <r>    4.7521    0.0000 </r>
       <r>    4.9008    0.0000 </r>
       <r>    5.2424    0.0000 </r>
       <r>    5.3630    0.0000 </r>
       <r>    5.5888    0.0000 </r>
       <r>    5.7120    0.0000 </r>
       <r>    5.8681    0.0000 </r>
       <r>    5.9399    0.0000 </r>
      </set>
      <set comment="kpoint 2">
       <r>  -13.2185    1.0000 </r>
       <r>   -6.3236    1.0000 </r>
       <r>   -5.4769    1.0000 </r>
       <r>   -5.0573    1.0000 </r>
       <r>   -4.3763    1.0000 </r>
       <r>   -4.2712    1.0000 </r>
       <r>   -4.2093    1.0000 </r>
       <r>   -4.0993    1.0000 </r>
       <r>   -3.9885    1.0000 </r>
       <r>   -3.8498    1.0000 </r>
       <r>   -3.8228    1.0000 </r>
       <r>   -3.8159    1.0000 </r>
       <r>   -3.7849    1.0000 </r>
       <r>   -3.7670    1.0000 </r>
       <r>   -3.7536    1.0000 </r>
       <r>   -3.7033    1.0000 </r>
       <r>   -3.6285    1.0000 </r>
       <r>   -3.6198    1.0000 </r>
       <r>   -3.6026    1.0000 </r>
       <r>   -3.5807    1.0000 </r>
       <r>   -3.5632    1.0000 </r>
       <r>   -3.5064    1.0000 </r>
       <r>   -3.4300    1.0000 </r>
       <r>   -3.4124    1.0000 </r>
       <r>   -3.3939    1.0000 </r>
       <r>   -3.3560    1.0000 </r>
       <r>   -3.3071    1.0000 </r>
       <r>   -3.2675    1.0000 </r>
       <r>   -3.2472    1.0000 </r>
       <r>   -3.2267    1.0000 </r>
       <r>   -3.2112    1.0000 </r>
       <r>   -3.1918    1.0000 </r>
       <r>   -3.1749    1.0000 </r>
       <r>   -3.1422    1.0000 </r>
       <r>   -3.1179    1.0000 </r>
       <r>   -3.0738    1.0000 </r>
       <r>   -3.0219    1.0000 </r>
       <r>   -2.9671    1.0000 </r>
       <r>   -2.9460    1.0000 </r>
       <r>   -2.9388    1.0000 </r>
       <r>   -2.9228    1.0000 </r>
       <r>   -2.9004    1.0000 </r>
       <r>   -2.8932    1.0000 </r>
       <r>   -2.8845    1.0000 </r>
       <r>   -2.8319    1.0000 </r>
       <r>   -2.7705    1.0000 </r>
       <r>   -2.6946    1.0000 </r>
       <r>   -2.6797    1.0000 </r>
       <r>   -2.6504    1.0000 </r>
       <r>   -2.6192    1.0000 </r>
       <r>   -2.5846    1.0000 </r>
       <r>   -2.5669    1.0000 </r>
       <r>   -2.5389    1.0000 </r>
       <r>   -2.5257    1.0000 </r>
       <r>   -2.5070    1.0000 </r>
       <r>   -2.4924    1.0000 </r>
       <r>   -2.4639    1.0000 </r>
       <r>   -2.4240    1.0000 </r>
       <r>   -2.4048    1.0000 </r>
       <r>   -2.3917    1.0000 </r>
       <r>   -2.2992    1.0000 </r>
       <r>   -2.2839    1.0000 </r>
       <r>   -2.2349    1.0000 </r>
       <r>   -2.2206    1.0000 </r>
       <r>   -2.1612    1.0000 </r>
       <r>   -2.1309    1.0000 </r>
       <r>   -2.1145    1.0000 </r>
       <r>   -2.1032    1.0000 </r>
       <r>   -2.0647    1.0000 </r>
       <r>   -2.0283    1.0000 </r>
       <r>   -1.9921    1.0000 </r>
       <r>   -1.9758    1.0000 </r>
       <r>   -1.9325    1.0000 </r>
       <r>   -1.9108    1.0000 </r>
       <r>   -1.8829    1.0000 </r>
       <r>   -1.8379    1.0000 </r>
       <r>   -1.8060    1.0000 </r>
       <r>   -1.7805    1.0000 </r>
       <r>   -1.7595    1.0000 </r>
       <r>   -1.7375    1.0000 </r>
       <r>   -1.7243    1.0000 </r>
       <r>   -1.7039    1.0000 </r>
       <r>   -1.6906    1.0000 </r>
       <r>   -1.6673    1.0000 </r>
       <r>   -1.6507    1.0000 </r>
       <r>   -1.6376    1.0000 </r>
       <r>   -1.6219    1.0000 </r>
       <r>   -1.6133    1.0000 </r>
       <r>   -1.5884    1.0000 </r>
       <r>   -1.5659    1.0000 </r>
       <r>   -1.5388    1.0000 </r>
       <r>   -1.5205    1.0000 </r>
       <r>   -1.4956    1.0000 </r>
       <r>   -1.4694    1.0000 </r>
       <r>   -1.4500    1.0000 </r>
       <r>   -1.4425    1.0000 </r>
       <r>   -1.4018    1.0000 </r>
       <r>   -1.3760    1.0000 </r>
       <r>   -1.3574    1.0000 </r>
       <r>   -1.3144    1.0000 </r>
       <r>   -1.2885    1.0000 </r>
       <r>   -1.2814    1.0000 </r>
       <r>   -1.2658    1.0000 </r>
       <r>   -1.2261    1.0000 </r>
       <r>   -1.1716    1.0000 </r>
       <r>   -1.1364    1.0000 </r>
       <r>   -1.1086    1.0000 </r>
       <r>   -1.0940    1.0000 </r>
       <r>   -1.0742    1.0000 </r>
       <r>   -1.0526    1.0000 </r>
       <r>   -1.0368    1.0000 </r>
       <r>   -1.0141    1.0000 </r>
       <r>   -0.9736    1.0000 </r>
       <r>   -0.9155    1.0000 </r>
       <r>   -0.8896    1.0000 </r>
       <r>   -0.8675    1.0000 </r>
       <r>   -0.8575    1.0000 </r>
       <r>   -0.8541    1.0000 </r>
       <r>   -0.8180    1.0000 </r>
       <r>   -0.8073    1.0000 </r>
       <r>   -0.8023    1.0000 </r>
       <r>   -0.7811    1.0000 </r>
       <r>   -0.7698    1.0000 </r>
       <r>   -0.7505    1.0000 </r>
       <r>   -0.7167    1.0000 </r>
       <r>   -0.6917    1.0000 </r>
       <r>   -0.6667    1.0000 </r>
       <r>   -0.6579    1.0000 </r>
       <r>   -0.6322    1.0000 </r>
       <r>   -0.6052    1.0000 </r>
       <r>   -0.5494    1.0000 </r>
       <r>   -0.5336    1.0000 </r>
       <r>   -0.5248    1.0000 </r>
       <r>   -0.4923    1.0000 </r>
       <r>   -0.4655    1.0000 </r>
       <r>   -0.4529    1.0000 </r>
       <r>   -0.4319    1.0000 </r>
       <r>   -0.4154    1.0000 </r>
       <r>   -0.3732    1.0000 </r>
       <r>   -0.3530    1.0000 </r>
       <r>   -0.3096    1.0000 </r>
       <r>   -0.2894    1.0000 </r>
       <r>   -0.2685    1.0000 </r>
       <r>   -0.2476    1.0000 </r>
       <r>   -0.1995    1.0000 </r>
       <r>   -0.1959    1.0000 </r>
       <r>   -0.1727    1.0000 </r>
       <r>   -0.1477    1.0000 </r>
       <r>   -0.1337    1.0000 </r>
       <r>   -0.0883    1.0000 </r>
       <r>   -0.0544    1.0000 </r>
       <r>   -0.0134    1.0000 </r>
       <r>    0.0116    1.0000 </r>
       <r>    0.0457    1.0000 </r>
       <r>    0.0736    1.0000 </r>
       <r>    0.0834    1.0000 </r>
       <r>    0.1147    1.0000 </r>
       <r>    0.1439    1.0000 </r>
       <r>    0.1536    1.0000 </r>
       <r>    0.1727    1.0000 </r>
       <r>    0.1807    1.0000 </r>
       <r>    0.1904    1.0000 </r>
       <r>    0.2142    1.0000 </r>
       <r>    0.2490    1.0000 </r>
       <r>    0.2766    1.0000 </r>
       <r>    0.2911    1.0000 </r>
       <r>    0.3402    1.0000 </r>
       <r>    0.3579    1.0000 </r>
       <r>    0.3827    1.0001 </r>
       <r>    0.4036    1.0003 </r>
       <r>    0.4173    1.0005 </r>
       <r>    0.4324    1.0011 </r>
       <r>    0.4568    1.0030 </r>
       <r>    0.4604    1.0035 </r>
       <r>    0.4774    1.0065 </r>
       <r>    0.5036    1.0144 </r>
       <r>    0.5115    1.0176 </r>
       <r>    0.5284    1.0252 </r>
       <r>    0.5535    1.0346 </r>
       <r>    0.6028    0.9924 </r>
       <r>    0.6207    0.9333 </r>
       <r>    0.6411    0.8272 </r>
       <r>    0.6533    0.7447 </r>
       <r>    0.6873    0.4700 </r>
       <r>    0.6920    0.4307 </r>
       <r>    0.6975    0.3851 </r>
       <r>    0.7259    0.1761 </r>
       <r>    0.7731   -0.0102 </r>
       <r>    0.8002   -0.0349 </r>
       <r>    0.8373   -0.0260 </r>
       <r>    0.9509   -0.0005 </r>
       <r>    0.9887   -0.0001 </r>
       <r>    1.3974   -0.0000 </r>
       <r>    1.5056   -0.0000 </r>
       <r>    1.5411   -0.0000 </r>
       <r>    1.6432   -0.0000 </r>
       <r>    1.7149   -0.0000 </r>
       <r>    1.9063   -0.0000 </r>
       <r>    2.0304   -0.0000 </r>
       <r>    2.1856   -0.0000 </r>
       <r>    2.3590   -0.0000 </r>
       <r>    2.5738   -0.0000 </r>
       <r>    2.7971    0.0000 </r>
       <r>    3.2278    0.0000 </r>
       <r>    3.3523    0.0000 </r>
       <r>    3.4347    0.0000 </r>
       <r>    3.6007    0.0000 </r>
       <r>    3.7996    0.0000 </r>
       <r>    3.9661    0.0000 </r>
       <r>    4.1351    0.0000 </r>
       <r>    4.2935    0.0000 </r>
       <r>    4.4987    0.0000 </r>
       <r>    4.7276    0.0000 </r>
       <r>    4.9978    0.0000 </r>
       <r>    5.1111    0.0000 </r>
       <r>    5.4295    0.0000 </r>
       <r>    5.5883    0.0000 </r>
       <r>    5.7223    0.0000 </r>
       <r>    5.9108    0.0000 </r>
       <r>    5.9543    0.0000 </r>
      </set>
     </set>
    </set>
   </array>
  </eigenvalues>
  <separator name="orbital magnetization" >
   <v name="MAGDIPOLOUT">      0.00000000      0.00000000      0.00000000</v>
  </separator>
  <dos>
   <i name="efermi">      0.68376839 </i>
   <total>
    <array>
     <dimension dim="1">gridpoints</dimension>
     <dimension dim="2">spin</dimension>
     <field>energy</field>
     <field>total</field>
     <field>integrated</field>
     <set>
      <set comment="spin 1">
       <r>   -14.2185     0.0000     0.0000 </r>
       <r>   -14.1479     0.0000     0.0000 </r>
       <r>   -14.0774    -0.0000    -0.0000 </r>
       <r>   -14.0068    -0.0000    -0.0000 </r>
       <r>   -13.9362    -0.0000    -0.0000 </r>
       <r>   -13.8656    -0.0000    -0.0000 </r>
       <r>   -13.7951    -0.0000    -0.0000 </r>
       <r>   -13.7245    -0.0000    -0.0000 </r>
       <r>   -13.6539    -0.0000    -0.0000 </r>
       <r>   -13.5833    -0.0000    -0.0000 </r>
       <r>   -13.5128    -0.0036    -0.0003 </r>
       <r>   -13.4422    -0.0944    -0.0069 </r>
       <r>   -13.3716    -0.6460    -0.0525 </r>
       <r>   -13.3010     0.8516     0.0076 </r>
       <r>   -13.2305    11.2210     0.7995 </r>
       <r>   -13.1599    14.5671     1.8276 </r>
       <r>   -13.0893     3.4293     2.0696 </r>
       <r>   -13.0187    -0.7586     2.0161 </r>
       <r>   -12.9482    -0.2155     2.0009 </r>
       <r>   -12.8776    -0.0124     2.0000 </r>
       <r>   -12.8070    -0.0002     2.0000 </r>
       <r>   -12.7364    -0.0000     2.0000 </r>
       <r>   -12.6659    -0.0000     2.0000 </r>
       <r>   -12.5953    -0.0000     2.0000 </r>
       <r>   -12.5247     0.0000     2.0000 </r>
       <r>   -12.4541     0.0000     2.0000 </r>
       <r>   -12.3835     0.0000     2.0000 </r>
       <r>   -12.3130     0.0000     2.0000 </r>
       <r>   -12.2424     0.0000     2.0000 </r>
       <r>   -12.1718     0.0000     2.0000 </r>
       <r>   -12.1012     0.0000     2.0000 </r>
       <r>   -12.0307     0.0000     2.0000 </r>
       <r>   -11.9601     0.0000     2.0000 </r>
       <r>   -11.8895     0.0000     2.0000 </r>
       <r>   -11.8189     0.0000     2.0000 </r>
       <r>   -11.7484     0.0000     2.0000 </r>
       <r>   -11.6778     0.0000     2.0000 </r>
       <r>   -11.6072     0.0000     2.0000 </r>
       <r>   -11.5366     0.0000     2.0000 </r>
       <r>   -11.4661     0.0000     2.0000 </r>
       <r>   -11.3955     0.0000     2.0000 </r>
       <r>   -11.3249     0.0000     2.0000 </r>
       <r>   -11.2543     0.0000     2.0000 </r>
       <r>   -11.1838     0.0000     2.0000 </r>
       <r>   -11.1132     0.0000     2.0000 </r>
       <r>   -11.0426     0.0000     2.0000 </r>
       <r>   -10.9720     0.0000     2.0000 </r>
       <r>   -10.9015     0.0000     2.0000 </r>
       <r>   -10.8309     0.0000     2.0000 </r>
       <r>   -10.7603     0.0000     2.0000 </r>
       <r>   -10.6897     0.0000     2.0000 </r>
       <r>   -10.6191     0.0000     2.0000 </r>
       <r>   -10.5486     0.0000     2.0000 </r>
       <r>   -10.4780     0.0000     2.0000 </r>
       <r>   -10.4074     0.0000     2.0000 </r>
       <r>   -10.3368     0.0000     2.0000 </r>
       <r>   -10.2663     0.0000     2.0000 </r>
       <r>   -10.1957     0.0000     2.0000 </r>
       <r>   -10.1251     0.0000     2.0000 </r>
       <r>   -10.0545     0.0000     2.0000 </r>
       <r>    -9.9840     0.0000     2.0000 </r>
       <r>    -9.9134     0.0000     2.0000 </r>
       <r>    -9.8428     0.0000     2.0000 </r>
       <r>    -9.7722     0.0000     2.0000 </r>
       <r>    -9.7017     0.0000     2.0000 </r>
       <r>    -9.6311     0.0000     2.0000 </r>
       <r>    -9.5605     0.0000     2.0000 </r>
       <r>    -9.4899     0.0000     2.0000 </r>
       <r>    -9.4194     0.0000     2.0000 </r>
       <r>    -9.3488     0.0000     2.0000 </r>
       <r>    -9.2782     0.0000     2.0000 </r>
       <r>    -9.2076     0.0000     2.0000 </r>
       <r>    -9.1371     0.0000     2.0000 </r>
       <r>    -9.0665     0.0000     2.0000 </r>
       <r>    -8.9959     0.0000     2.0000 </r>
       <r>    -8.9253     0.0000     2.0000 </r>
       <r>    -8.8547     0.0000     2.0000 </r>
       <r>    -8.7842     0.0000     2.0000 </r>
       <r>    -8.7136     0.0000     2.0000 </r>
       <r>    -8.6430     0.0000     2.0000 </r>
       <r>    -8.5724     0.0000     2.0000 </r>
       <r>    -8.5019     0.0000     2.0000 </r>
       <r>    -8.4313     0.0000     2.0000 </r>
       <r>    -8.3607     0.0000     2.0000 </r>
       <r>    -8.2901     0.0000     2.0000 </r>
       <r>    -8.2196     0.0000     2.0000 </r>
       <r>    -8.1490     0.0000     2.0000 </r>
       <r>    -8.0784     0.0000     2.0000 </r>
       <r>    -8.0078     0.0000     2.0000 </r>
       <r>    -7.9373     0.0000     2.0000 </r>
       <r>    -7.8667     0.0000     2.0000 </r>
       <r>    -7.7961     0.0000     2.0000 </r>
       <r>    -7.7255     0.0000     2.0000 </r>
       <r>    -7.6550     0.0000     2.0000 </r>
       <r>    -7.5844     0.0000     2.0000 </r>
       <r>    -7.5138     0.0000     2.0000 </r>
       <r>    -7.4432     0.0000     2.0000 </r>
       <r>    -7.3727     0.0000     2.0000 </r>
       <r>    -7.3021     0.0000     2.0000 </r>
       <r>    -7.2315     0.0000     2.0000 </r>
       <r>    -7.1609    -0.0000     2.0000 </r>
       <r>    -7.0903    -0.0000     2.0000 </r>
       <r>    -7.0198    -0.0000     2.0000 </r>
       <r>    -6.9492    -0.0000     2.0000 </r>
       <r>    -6.8786    -0.0000     2.0000 </r>
       <r>    -6.8080    -0.0000     2.0000 </r>
       <r>    -6.7375    -0.0000     2.0000 </r>
       <r>    -6.6669    -0.0002     2.0000 </r>
       <r>    -6.5963    -0.0124     1.9991 </r>
       <r>    -6.5257    -0.2150     1.9839 </r>
       <r>    -6.4552    -0.7569     1.9305 </r>
       <r>    -6.3846     3.4175     2.1717 </r>
       <r>    -6.3140    14.5447     3.1982 </r>
       <r>    -6.2434    11.2386     3.9914 </r>
       <r>    -6.1729     0.8675     4.0526 </r>
       <r>    -6.1023    -0.6467     4.0070 </r>
       <r>    -6.0317    -0.0951     4.0003 </r>
       <r>    -5.9611    -0.0036     4.0000 </r>
       <r>    -5.8906    -0.0000     4.0000 </r>
       <r>    -5.8200    -0.0001     4.0000 </r>
       <r>    -5.7494    -0.0079     3.9994 </r>
       <r>    -5.6788    -0.1577     3.9883 </r>
       <r>    -5.6083    -0.7253     3.9371 </r>
       <r>    -5.5377     2.2127     4.0933 </r>
       <r>    -5.4671    13.1907     5.0242 </r>
       <r>    -5.3965    12.7879     5.9267 </r>
       <r>    -5.3259     1.8867     6.0599 </r>
       <r>    -5.2554    -0.9398     5.9936 </r>
       <r>    -5.1848    -0.8965     5.9303 </r>
       <r>    -5.1142     3.6587     6.1885 </r>
       <r>    -5.0436    14.7379     7.2287 </r>
       <r>    -4.9731    10.9316     8.0002 </r>
       <r>    -4.9025     0.7194     8.0509 </r>
       <r>    -4.8319    -0.6300     8.0065 </r>
       <r>    -4.7613    -0.0885     8.0002 </r>
       <r>    -4.6908    -0.0076     7.9997 </r>
       <r>    -4.6202    -0.0985     7.9927 </r>
       <r>    -4.5496    -0.6070     7.9499 </r>
       <r>    -4.4790     0.7039     7.9996 </r>
       <r>    -4.4085     9.6079     8.6777 </r>
       <r>    -4.3379    17.0635     9.8819 </r>
       <r>    -4.2673    20.5870    11.3349 </r>
       <r>    -4.1967    23.1343    12.9676 </r>
       <r>    -4.1262    18.0743    14.2432 </r>
       <r>    -4.0556    18.3611    15.5391 </r>
       <r>    -3.9850    20.0460    16.9538 </r>
       <r>    -3.9144    12.7147    17.8512 </r>
       <r>    -3.8438    37.4148    20.4918 </r>
       <r>    -3.7733    79.7329    26.1190 </r>
       <r>    -3.7027    66.2523    30.7948 </r>
       <r>    -3.6321    57.6982    34.8669 </r>
       <r>    -3.5615    73.1195    40.0274 </r>
       <r>    -3.4910    48.9908    43.4850 </r>
       <r>    -3.4204    42.7695    46.5035 </r>
       <r>    -3.3498    58.9617    50.6648 </r>
       <r>    -3.2792    61.8073    55.0269 </r>
       <r>    -3.2087    88.0698    61.2425 </r>
       <r>    -3.1381    86.2014    67.3263 </r>
       <r>    -3.0675    52.1102    71.0040 </r>
       <r>    -2.9969    47.5352    74.3588 </r>
       <r>    -2.9264    87.4514    80.5308 </r>
       <r>    -2.8558    94.7091    87.2150 </r>
       <r>    -2.7852    49.9991    90.7437 </r>
       <r>    -2.7146    34.3137    93.1655 </r>
       <r>    -2.6441    55.9184    97.1120 </r>
       <r>    -2.5735    77.9307   102.6120 </r>
       <r>    -2.5029    88.4815   108.8567 </r>
       <r>    -2.4323    79.8096   114.4893 </r>
       <r>    -2.3618    59.8669   118.7145 </r>
       <r>    -2.2912    50.9980   122.3137 </r>
       <r>    -2.2206    54.8277   126.1832 </r>
       <r>    -2.1500    61.6225   130.5323 </r>
       <r>    -2.0794    73.7179   135.7350 </r>
       <r>    -2.0089    71.4883   140.7804 </r>
       <r>    -1.9383    67.7025   145.5585 </r>
       <r>    -1.8677    57.6093   149.6244 </r>
       <r>    -1.7971    61.2125   153.9445 </r>
       <r>    -1.7266    93.6326   160.5527 </r>
       <r>    -1.6560   114.9744   168.6672 </r>
       <r>    -1.5854   112.2913   176.5922 </r>
       <r>    -1.5148    96.3926   183.3952 </r>
       <r>    -1.4443    89.4507   189.7083 </r>
       <r>    -1.3737    82.3454   195.5199 </r>
       <r>    -1.3031    82.5371   201.3451 </r>
       <r>    -1.2325    70.5770   206.3261 </r>
       <r>    -1.1620    49.0096   209.7850 </r>
       <r>    -1.0914    71.3077   214.8176 </r>
       <r>    -1.0208    82.8814   220.6671 </r>
       <r>    -0.9502    61.2560   224.9903 </r>
       <r>    -0.8797    83.1096   230.8558 </r>
       <r>    -0.8091   119.8745   239.3161 </r>
       <r>    -0.7385   113.3678   247.3171 </r>
       <r>    -0.6679    92.4814   253.8441 </r>
       <r>    -0.5974    78.2319   259.3654 </r>
       <r>    -0.5268    71.5281   264.4136 </r>
       <r>    -0.4562    83.7961   270.3275 </r>
       <r>    -0.3856    88.0860   276.5443 </r>
       <r>    -0.3150    73.0470   281.6997 </r>
       <r>    -0.2445    70.6220   286.6839 </r>
       <r>    -0.1739    82.7274   292.5225 </r>
       <r>    -0.1033    76.8063   297.9431 </r>
       <r>    -0.0327    57.8150   302.0235 </r>
       <r>     0.0378    65.0088   306.6116 </r>
       <r>     0.1084    88.8752   312.8840 </r>
       <r>     0.1790   105.9103   320.3587 </r>
       <r>     0.2496    92.9747   326.9205 </r>
       <r>     0.3201    75.4317   332.2442 </r>
       <r>     0.3907    89.5745   338.5660 </r>
       <r>     0.4613   115.2169   346.6976 </r>
       <r>     0.5319   107.5980   354.2914 </r>
       <r>     0.6024    83.1227   360.1579 </r>
       <r>     0.6730    95.2860   366.8828 </r>
       <r>     0.7436    95.7240   373.6386 </r>
       <r>     0.8142    58.8857   377.7945 </r>
       <r>     0.8847    28.6190   379.8143 </r>
       <r>     0.9553    26.3464   381.6737 </r>
       <r>     1.0259    27.1307   383.5885 </r>
       <r>     1.0965     7.5853   384.1239 </r>
       <r>     1.1670    -1.6345   384.0085 </r>
       <r>     1.2376    -0.2850   383.9884 </r>
       <r>     1.3082     5.6985   384.3906 </r>
       <r>     1.3788    11.0118   385.1677 </r>
       <r>     1.4494    12.1929   386.0283 </r>
       <r>     1.5199    22.4622   387.6135 </r>
       <r>     1.5905    30.8928   389.7938 </r>
       <r>     1.6611    25.5127   391.5944 </r>
       <r>     1.7317    15.3796   392.6798 </r>
       <r>     1.8022    13.3380   393.6212 </r>
       <r>     1.8728    18.0236   394.8932 </r>
       <r>     1.9434    13.1856   395.8238 </r>
       <r>     2.0140    11.8802   396.6623 </r>
       <r>     2.0845    14.3798   397.6771 </r>
       <r>     2.1551     8.2953   398.2626 </r>
       <r>     2.2257    11.7394   399.0911 </r>
       <r>     2.2963    18.4582   400.3938 </r>
       <r>     2.3668    16.2740   401.5424 </r>
       <r>     2.4374     6.0647   401.9704 </r>
       <r>     2.5080     4.9167   402.3174 </r>
       <r>     2.5786    14.2773   403.3250 </r>
       <r>     2.6491     9.2055   403.9747 </r>
       <r>     2.7197     0.8075   404.0317 </r>
       <r>     2.7903     6.2983   404.4762 </r>
       <r>     2.8609    13.2356   405.4103 </r>
       <r>     2.9314     8.1312   405.9842 </r>
       <r>     3.0020     0.6791   406.0321 </r>
       <r>     3.0726    -1.1231   405.9529 </r>
       <r>     3.1432     0.7045   406.0026 </r>
       <r>     3.2138    10.5797   406.7493 </r>
       <r>     3.2843    15.4277   407.8381 </r>
       <r>     3.3549    15.4892   408.9312 </r>
       <r>     3.4255    20.6688   410.3900 </r>
       <r>     3.4961    17.6007   411.6322 </r>
       <r>     3.5666    14.8492   412.6802 </r>
       <r>     3.6372    14.2213   413.6838 </r>
       <r>     3.7078     4.9587   414.0338 </r>
       <r>     3.7784     8.5695   414.6386 </r>
       <r>     3.8489    16.3257   415.7908 </r>
       <r>     3.9195    14.3363   416.8026 </r>
       <r>     3.9901    11.9559   417.6464 </r>
       <r>     4.0607     7.0667   418.1451 </r>
       <r>     4.1312    12.8374   419.0512 </r>
       <r>     4.2018    15.8077   420.1668 </r>
       <r>     4.2724    14.2249   421.1707 </r>
       <r>     4.3430    10.0790   421.8821 </r>
       <r>     4.4135     2.2006   422.0374 </r>
       <r>     4.4841     4.4644   422.3525 </r>
       <r>     4.5547     9.4644   423.0204 </r>
       <r>     4.6253     9.1040   423.6629 </r>
       <r>     4.6958     9.9134   424.3626 </r>
       <r>     4.7664    14.8140   425.4081 </r>
       <r>     4.8370     9.4725   426.0766 </r>
       <r>     4.9076     7.1008   426.5778 </r>
       <r>     4.9782    10.0912   427.2900 </r>
       <r>     5.0487     9.5503   427.9640 </r>
       <r>     5.1193     8.6169   428.5721 </r>
       <r>     5.1899     7.4032   429.0946 </r>
       <r>     5.2605     7.6123   429.6319 </r>
       <r>     5.3310     8.4988   430.2317 </r>
       <r>     5.4016    11.9417   431.0745 </r>
       <r>     5.4722    10.1321   431.7896 </r>
       <r>     5.5428     7.5589   432.3230 </r>
       <r>     5.6133    14.7349   433.3630 </r>
       <r>     5.6839    16.0413   434.4951 </r>
       <r>     5.7545    14.8682   435.5445 </r>
       <r>     5.8251     8.7784   436.1640 </r>
       <r>     5.8956    17.1871   437.3770 </r>
       <r>     5.9662    26.3793   439.2387 </r>
       <r>     6.0368    11.8098   440.0722 </r>
       <r>     6.1074    -0.2205   440.0567 </r>
       <r>     6.1779    -0.7183   440.0060 </r>
       <r>     6.2485    -0.0819   440.0002 </r>
       <r>     6.3191    -0.0027   440.0000 </r>
       <r>     6.3897    -0.0000   440.0000 </r>
       <r>     6.4602    -0.0000   440.0000 </r>
       <r>     6.5308    -0.0000   440.0000 </r>
       <r>     6.6014    -0.0000   440.0000 </r>
       <r>     6.6720     0.0000   440.0000 </r>
       <r>     6.7426     0.0000   440.0000 </r>
       <r>     6.8131     0.0000   440.0000 </r>
       <r>     6.8837     0.0000   440.0000 </r>
       <r>     6.9543     0.0000   440.0000 </r>
      </set>
     </set>
    </array>
   </total>
  </dos>
 </calculation>
 <structure name="finalpos" >
  <crystal>
   <varray name="basis" >
    <v>       8.35800215       0.00000000       0.00000000 </v>
    <v>       0.00000000       8.35800215       0.00000000 </v>
    <v>       0.00000000       0.00000000      19.91000000 </v>
   </varray>
   <i name="volume">   1390.83694200 </i>
   <varray name="rec_basis" >
    <v>       0.11964582       0.00000000       0.00000000 </v>
    <v>       0.00000000       0.11964582       0.00000000 </v>
    <v>       0.00000000       0.00000000       0.05022602 </v>
   </varray>
  </crystal>
  <varray name="positions" >
   <v>       0.16666667       0.16666667       0.00000000 </v>
   <v>       0.50000000       0.16666667       0.00000000 </v>
   <v>       0.83333333       0.16666667       0.00000000 </v>
   <v>       0.16666667       0.50000000       0.00000000 </v>
   <v>       0.50000000       0.50000000       0.00000000 </v>
   <v>       0.83333333       0.50000000       0.00000000 </v>
   <v>       0.16666667       0.83333333       0.00000000 </v>
   <v>       0.50000000       0.83333333       0.00000000 </v>
   <v>       0.83333333       0.83333333       0.00000000 </v>
   <v>       0.00000000       0.00000000       0.09894525 </v>
   <v>       0.33333333       0.00000000       0.09894525 </v>
   <v>       0.66666667       0.00000000       0.09894525 </v>
   <v>       0.00000000       0.33333333       0.09894525 </v>
   <v>       0.33333333       0.33333333       0.09894525 </v>
   <v>       0.66666667       0.33333333       0.09894525 </v>
   <v>       0.00000000       0.66666667       0.09894525 </v>
   <v>       0.33333333       0.66666667       0.09894525 </v>
   <v>       0.66666667       0.66666667       0.09894525 </v>
   <v>       0.16839306       0.16530295       0.19793060 </v>
   <v>       0.49977314       0.16760468       0.19913008 </v>
   <v>       0.83625016       0.16904259       0.19853530 </v>
   <v>       0.16978808       0.49892047       0.19841257 </v>
   <v>       0.50263205       0.49891993       0.19793861 </v>
   <v>       0.83624384       0.50164060       0.19781158 </v>
   <v>       0.16684749       0.83355769       0.19648384 </v>
   <v>       0.50232003       0.83487484       0.19636344 </v>
   <v>       0.83558319       0.83412151       0.19850733 </v>
   <v>       0.00096029       0.99860886       0.29636870 </v>
   <v>       0.33387445       0.99727103       0.29634665 </v>
   <v>       0.66742053       0.00154044       0.29729828 </v>
   <v>       0.99942113       0.33189545       0.29763889 </v>
   <v>       0.34225846       0.32487335       0.30343219 </v>
   <v>       0.67327807       0.33547246       0.29699599 </v>
   <v>       0.00657779       0.66881854       0.30039277 </v>
   <v>       0.34288169       0.67356282       0.29486274 </v>
   <v>       0.67248008       0.67105817       0.29562814 </v>
   <v>       0.51835806       0.25664582       0.34129681 </v>
   <v>       0.27075970       0.60602103       0.36974560 </v>
   <v>       0.16439911       0.45653691       0.37437235 </v>
  </varray>
  <varray name="selective"  type="logical" >
   <v type="logical" >  F  F  F </v>
   <v type="logical" >  F  F  F </v>
   <v type="logical" >  F  F  F </v>
   <v type="logical" >  F  F  F </v>
   <v type="logical" >  F  F  F </v>
   <v type="logical" >  F  F  F </v>
   <v type="logical" >  F  F  F </v>
   <v type="logical" >  F  F  F </v>
   <v type="logical" >  F  F  F </v>
   <v type="logical" >  F  F  F </v>
   <v type="logical" >  F  F  F </v>
   <v type="logical" >  F  F  F </v>
   <v type="logical" >  F  F  F </v>
   <v type="logical" >  F  F  F </v>
   <v type="logical" >  F  F  F </v>
   <v type="logical" >  F  F  F </v>
   <v type="logical" >  F  F  F </v>
   <v type="logical" >  F  F  F </v>
   <v type="logical" >  T  T  T </v>
   <v type="logical" >  T  T  T </v>
   <v type="logical" >  T  T  T </v>
   <v type="logical" >  T  T  T </v>
   <v type="logical" >  T  T  T </v>
   <v type="logical" >  T  T  T </v>
   <v type="logical" >  T  T  T </v>
   <v type="logical" >  T  T  T </v>
   <v type="logical" >  T  T  T </v>
   <v type="logical" >  T  T  T </v>
   <v type="logical" >  T  T  T </v>
   <v type="logical" >  T  T  T </v>
   <v type="logical" >  T  T  T </v>
   <v type="logical" >  T  T  T </v>
   <v type="logical" >  T  T  T </v>
   <v type="logical" >  T  T  T </v>
   <v type="logical" >  T  T  T </v>
   <v type="logical" >  T  T  T </v>
   <v type="logical" >  T  T  T </v>
   <v type="logical" >  T  T  T </v>
   <v type="logical" >  T  T  T </v>
  </varray>
  <nose>
   <v>      -3.00000000       0.00000000       0.00010000       0.00010000 </v>
  </nose>
 </structure>
</modeling>
