unknown system                          
           1
     8.358002    0.000000    0.000000
     0.000000    8.358002    0.000000
     0.000000    0.000000   19.910000
   Pd   H    S 
    36     2     1
Direct configuration=     1
   0.16666667  0.16666667  0.00000000
   0.50000000  0.16666667  0.00000000
   0.83333333  0.16666667  0.00000000
   0.16666667  0.50000000  0.00000000
   0.50000000  0.50000000  0.00000000
   0.83333333  0.50000000  0.00000000
   0.16666667  0.83333333  0.00000000
   0.50000000  0.83333333  0.00000000
   0.83333333  0.83333333  0.00000000
   0.00000000  0.00000000  0.09894525
   0.33333333  0.00000000  0.09894525
   0.66666667  0.00000000  0.09894525
   0.00000000  0.33333333  0.09894525
   0.33333333  0.33333333  0.09894525
   0.66666667  0.33333333  0.09894525
   0.00000000  0.66666667  0.09894525
   0.33333333  0.66666667  0.09894525
   0.66666667  0.66666667  0.09894525
   0.16839306  0.16530295  0.19793060
   0.49977314  0.16760468  0.19913008
   0.83625016  0.16904259  0.19853530
   0.16978808  0.49892047  0.19841257
   0.50263205  0.49891993  0.19793861
   0.83624384  0.50164060  0.19781158
   0.16684749  0.83355769  0.19648384
   0.50232003  0.83487484  0.19636344
   0.83558319  0.83412151  0.19850733
   0.00096029  0.99860886  0.29636870
   0.33387445  0.99727103  0.29634665
   0.66742053  0.00154044  0.29729828
   0.99942113  0.33189545  0.29763889
   0.34225846  0.32487335  0.30343219
   0.67327807  0.33547246  0.29699599
   0.00657779  0.66881854  0.30039277
   0.34288169  0.67356282  0.29486274
   0.67248008  0.67105817  0.29562814
   0.51835806  0.25664582  0.34129681
   0.27075970  0.60602103  0.36974560
   0.16439911  0.45653691  0.37437235
