  37  37   0   0
  0.4206308E+02  0.8803480E-09  0.8803480E-09  0.2318801E-08  0.5000000E-15
   1.0000000000000000E-004
  CAR 
 unknown system                          
      8.06193943    -18.13741195  301      0.43128988      1.00000000
    -18.137  0.0000E+00  0.0000E+00
    -18.050  0.0000E+00  0.0000E+00
    -17.963  0.0000E+00  0.0000E+00
    -17.875  0.0000E+00  0.0000E+00
    -17.788 -0.9114E-29 -0.7959E-30
    -17.701 -0.9256E-23 -0.8083E-24
    -17.613 -0.2017E-17 -0.1762E-18
    -17.526 -0.9149E-13 -0.7990E-14
    -17.439 -0.8940E-09 -0.7808E-10
    -17.351 -0.1829E-05 -0.1598E-06
    -17.264 -0.7610E-03 -0.6662E-04
    -17.177 -0.5986E-01 -0.5294E-02
    -17.089 -0.6393E+00 -0.6112E-01
    -17.002  0.2981E+01  0.1992E+00
    -16.915  0.1495E+02  0.1505E+01
    -16.827  0.6475E+01  0.2070E+01
    -16.740 -0.6579E+00  0.2013E+01
    -16.653 -0.1462E+00  0.2000E+01
    -16.565 -0.3051E-02  0.2000E+01
    -16.478 -0.1154E-04  0.2000E+01
    -16.391 -0.8754E-08  0.2000E+01
    -16.303 -0.1381E-11  0.2000E+01
    -16.216  0.0000E+00  0.2000E+01
    -16.129  0.0000E+00  0.2000E+01
    -16.041  0.0000E+00  0.2000E+01
    -15.954  0.0000E+00  0.2000E+01
    -15.867  0.0000E+00  0.2000E+01
    -15.779  0.0000E+00  0.2000E+01
    -15.692  0.0000E+00  0.2000E+01
    -15.605  0.0000E+00  0.2000E+01
    -15.517  0.0000E+00  0.2000E+01
    -15.430  0.0000E+00  0.2000E+01
    -15.343  0.0000E+00  0.2000E+01
    -15.255  0.0000E+00  0.2000E+01
    -15.168  0.0000E+00  0.2000E+01
    -15.081  0.0000E+00  0.2000E+01
    -14.993  0.0000E+00  0.2000E+01
    -14.906  0.0000E+00  0.2000E+01
    -14.819  0.0000E+00  0.2000E+01
    -14.731  0.0000E+00  0.2000E+01
    -14.644  0.0000E+00  0.2000E+01
    -14.557  0.0000E+00  0.2000E+01
    -14.470  0.0000E+00  0.2000E+01
    -14.382  0.0000E+00  0.2000E+01
    -14.295  0.0000E+00  0.2000E+01
    -14.208  0.0000E+00  0.2000E+01
    -14.120  0.0000E+00  0.2000E+01
    -14.033  0.0000E+00  0.2000E+01
    -13.946  0.0000E+00  0.2000E+01
    -13.858  0.0000E+00  0.2000E+01
    -13.771  0.0000E+00  0.2000E+01
    -13.684  0.0000E+00  0.2000E+01
    -13.596  0.0000E+00  0.2000E+01
    -13.509  0.0000E+00  0.2000E+01
    -13.422  0.0000E+00  0.2000E+01
    -13.334  0.0000E+00  0.2000E+01
    -13.247  0.0000E+00  0.2000E+01
    -13.160  0.0000E+00  0.2000E+01
    -13.072  0.0000E+00  0.2000E+01
    -12.985  0.0000E+00  0.2000E+01
    -12.898  0.0000E+00  0.2000E+01
    -12.810  0.0000E+00  0.2000E+01
    -12.723  0.0000E+00  0.2000E+01
    -12.636  0.0000E+00  0.2000E+01
    -12.548  0.0000E+00  0.2000E+01
    -12.461  0.0000E+00  0.2000E+01
    -12.374  0.0000E+00  0.2000E+01
    -12.286  0.0000E+00  0.2000E+01
    -12.199  0.0000E+00  0.2000E+01
    -12.112  0.0000E+00  0.2000E+01
    -12.024  0.0000E+00  0.2000E+01
    -11.937  0.0000E+00  0.2000E+01
    -11.850  0.0000E+00  0.2000E+01
    -11.762  0.0000E+00  0.2000E+01
    -11.675  0.0000E+00  0.2000E+01
    -11.588  0.0000E+00  0.2000E+01
    -11.500  0.0000E+00  0.2000E+01
    -11.413  0.0000E+00  0.2000E+01
    -11.326  0.0000E+00  0.2000E+01
    -11.238  0.0000E+00  0.2000E+01
    -11.151  0.0000E+00  0.2000E+01
    -11.064  0.0000E+00  0.2000E+01
    -10.976  0.0000E+00  0.2000E+01
    -10.889  0.0000E+00  0.2000E+01
    -10.802  0.0000E+00  0.2000E+01
    -10.714  0.0000E+00  0.2000E+01
    -10.627  0.0000E+00  0.2000E+01
    -10.540  0.0000E+00  0.2000E+01
    -10.452  0.0000E+00  0.2000E+01
    -10.365  0.0000E+00  0.2000E+01
    -10.278  0.0000E+00  0.2000E+01
    -10.190  0.0000E+00  0.2000E+01
    -10.103  0.0000E+00  0.2000E+01
    -10.016  0.0000E+00  0.2000E+01
     -9.928  0.0000E+00  0.2000E+01
     -9.841  0.0000E+00  0.2000E+01
     -9.754  0.0000E+00  0.2000E+01
     -9.666  0.0000E+00  0.2000E+01
     -9.579  0.0000E+00  0.2000E+01
     -9.492  0.0000E+00  0.2000E+01
     -9.404  0.0000E+00  0.2000E+01
     -9.317  0.0000E+00  0.2000E+01
     -9.230  0.0000E+00  0.2000E+01
     -9.142  0.0000E+00  0.2000E+01
     -9.055 -0.2711E-27  0.2000E+01
     -8.968 -0.1778E-21  0.2000E+01
     -8.880 -0.2501E-16  0.2000E+01
     -8.793 -0.7273E-12  0.2000E+01
     -8.706 -0.4573E-08  0.2000E+01
     -8.618 -0.5973E-05  0.2000E+01
     -8.531 -0.1565E-02  0.2000E+01
     -8.444 -0.7426E-01  0.1993E+01
     -8.356 -0.3270E+00  0.1965E+01
     -8.269  0.3275E+01  0.2251E+01
     -8.182  0.7464E+01  0.2903E+01
     -8.094  0.1443E+01  0.3029E+01
     -8.007 -0.5924E+00  0.2977E+01
     -7.920  0.8440E+00  0.3051E+01
     -7.832  0.7058E+01  0.3667E+01
     -7.745  0.4170E+01  0.4031E+01
     -7.658 -0.2498E+00  0.4009E+01
     -7.570 -0.1050E+00  0.4000E+01
     -7.483 -0.3745E-02  0.4000E+01
     -7.396 -0.6140E-01  0.3995E+01
     -7.308 -0.6042E+00  0.3942E+01
     -7.221  0.2282E+01  0.4141E+01
     -7.134  0.1669E+02  0.5599E+01
     -7.046  0.1509E+02  0.6916E+01
     -6.959  0.1966E+01  0.7088E+01
     -6.872  0.6038E+01  0.7615E+01
     -6.784  0.6552E+01  0.8187E+01
     -6.697  0.7391E+01  0.8833E+01
     -6.610  0.2174E+01  0.9023E+01
     -6.522 -0.9788E+00  0.8937E+01
     -6.435  0.5834E+01  0.9447E+01
     -6.348  0.1436E+02  0.1070E+02
     -6.260  0.4080E+01  0.1106E+02
     -6.173  0.1385E+02  0.1227E+02
     -6.086  0.3177E+02  0.1504E+02
     -5.998  0.3575E+02  0.1816E+02
     -5.911  0.2992E+02  0.2078E+02
     -5.824  0.3215E+02  0.2358E+02
     -5.736  0.5638E+02  0.2851E+02
     -5.649  0.3799E+02  0.3183E+02
     -5.562  0.2999E+02  0.3444E+02
     -5.474  0.4103E+02  0.3803E+02
     -5.387  0.5708E+02  0.4301E+02
     -5.300  0.8994E+02  0.5087E+02
     -5.212  0.9653E+02  0.5930E+02
     -5.125  0.5703E+02  0.6428E+02
     -5.038  0.5356E+02  0.6895E+02
     -4.950  0.5341E+02  0.7362E+02
     -4.863  0.4809E+02  0.7782E+02
     -4.776  0.3960E+02  0.8128E+02
     -4.688  0.5105E+02  0.8574E+02
     -4.601  0.7740E+02  0.9250E+02
     -4.514  0.6196E+02  0.9791E+02
     -4.426  0.5394E+02  0.1026E+03
     -4.339  0.7737E+02  0.1094E+03
     -4.252  0.6636E+02  0.1152E+03
     -4.164  0.6272E+02  0.1206E+03
     -4.077  0.8038E+02  0.1277E+03
     -3.990  0.7581E+02  0.1343E+03
     -3.902  0.7831E+02  0.1411E+03
     -3.815  0.8324E+02  0.1484E+03
     -3.728  0.9037E+02  0.1563E+03
     -3.640  0.1084E+03  0.1658E+03
     -3.553  0.1076E+03  0.1751E+03
     -3.466  0.1166E+03  0.1853E+03
     -3.378  0.1209E+03  0.1959E+03
     -3.291  0.9164E+02  0.2039E+03
     -3.204  0.8061E+02  0.2109E+03
     -3.116  0.9695E+02  0.2194E+03
     -3.029  0.7619E+02  0.2261E+03
     -2.942  0.5386E+02  0.2308E+03
     -2.854  0.7153E+02  0.2370E+03
     -2.767  0.9862E+02  0.2456E+03
     -2.680  0.7211E+02  0.2519E+03
     -2.592  0.7738E+02  0.2587E+03
     -2.505  0.7418E+02  0.2651E+03
     -2.418  0.7273E+02  0.2715E+03
     -2.330  0.8176E+02  0.2786E+03
     -2.243  0.8191E+02  0.2858E+03
     -2.156  0.9483E+02  0.2941E+03
     -2.068  0.9319E+02  0.3022E+03
     -1.981  0.9803E+02  0.3108E+03
     -1.894  0.7595E+02  0.3174E+03
     -1.806  0.5853E+02  0.3225E+03
     -1.719  0.7212E+02  0.3288E+03
     -1.632  0.1190E+03  0.3392E+03
     -1.544  0.1428E+03  0.3517E+03
     -1.457  0.1111E+03  0.3614E+03
     -1.370  0.8860E+02  0.3691E+03
     -1.282  0.6215E+02  0.3745E+03
     -1.195  0.3231E+02  0.3774E+03
     -1.108  0.1396E+02  0.3786E+03
     -1.021  0.1654E+02  0.3800E+03
     -0.933  0.2880E+02  0.3825E+03
     -0.846  0.3012E+02  0.3852E+03
     -0.759  0.1910E+02  0.3868E+03
     -0.671  0.1699E+02  0.3883E+03
     -0.584  0.1841E+02  0.3899E+03
     -0.497  0.1903E+02  0.3916E+03
     -0.409  0.1556E+02  0.3930E+03
     -0.322  0.1224E+02  0.3940E+03
     -0.235  0.1233E+02  0.3951E+03
     -0.147  0.9114E+01  0.3959E+03
     -0.060  0.6451E+01  0.3965E+03
      0.027  0.1108E+02  0.3974E+03
      0.115  0.1509E+02  0.3987E+03
      0.202  0.2986E+01  0.3990E+03
      0.289  0.2781E+01  0.3992E+03
      0.377  0.1594E+02  0.4006E+03
      0.464  0.2508E+02  0.4028E+03
      0.551  0.1357E+02  0.4040E+03
      0.639 -0.2755E+00  0.4040E+03
      0.726  0.6393E+01  0.4045E+03
      0.813  0.1749E+02  0.4061E+03
      0.901  0.1798E+02  0.4076E+03
      0.988  0.2055E+02  0.4094E+03
      1.075  0.1151E+02  0.4104E+03
      1.163  0.6492E+01  0.4110E+03
      1.250  0.1154E+02  0.4120E+03
      1.337  0.1606E+02  0.4134E+03
      1.425  0.1055E+02  0.4143E+03
      1.512  0.7284E+01  0.4150E+03
      1.599  0.6978E+01  0.4156E+03
      1.687  0.4950E+01  0.4160E+03
      1.774  0.9822E+01  0.4169E+03
      1.861  0.1618E+02  0.4183E+03
      1.949  0.1528E+02  0.4196E+03
      2.036  0.4824E+01  0.4201E+03
      2.123  0.1612E+02  0.4215E+03
      2.211  0.2394E+02  0.4235E+03
      2.298  0.6837E+01  0.4241E+03
      2.385  0.8787E+01  0.4249E+03
      2.473  0.1110E+02  0.4259E+03
      2.560  0.1052E+01  0.4260E+03
      2.647  0.4740E+01  0.4264E+03
      2.735  0.1712E+02  0.4279E+03
      2.822  0.2109E+02  0.4297E+03
      2.909  0.2823E+02  0.4322E+03
      2.997  0.1784E+02  0.4337E+03
      3.084  0.1230E+02  0.4348E+03
      3.171  0.3046E+01  0.4351E+03
      3.259  0.4537E+01  0.4355E+03
      3.346  0.6445E+01  0.4360E+03
      3.433  0.1278E+02  0.4372E+03
      3.521  0.1570E+02  0.4385E+03
      3.608  0.1192E+02  0.4396E+03
      3.695  0.1302E+02  0.4407E+03
      3.783  0.3356E+01  0.4410E+03
      3.870  0.7648E+00  0.4411E+03
      3.957  0.1436E+02  0.4423E+03
      4.045  0.2727E+02  0.4447E+03
      4.132  0.2123E+02  0.4466E+03
      4.219  0.7766E+01  0.4472E+03
      4.307  0.1000E+02  0.4481E+03
      4.394  0.1091E+02  0.4491E+03
      4.481  0.1374E+02  0.4503E+03
      4.569  0.1478E+02  0.4516E+03
      4.656  0.7380E+01  0.4522E+03
      4.743  0.8717E+01  0.4530E+03
      4.831  0.1688E+02  0.4544E+03
      4.918  0.1641E+02  0.4559E+03
      5.005  0.2656E+01  0.4561E+03
      5.093  0.5601E+01  0.4566E+03
      5.180  0.1439E+02  0.4579E+03
      5.267  0.2113E+02  0.4597E+03
      5.355  0.1507E+02  0.4610E+03
      5.442  0.1244E+02  0.4621E+03
      5.529  0.1637E+02  0.4635E+03
      5.617  0.1171E+02  0.4646E+03
      5.704  0.1620E+02  0.4660E+03
      5.791  0.2030E+02  0.4677E+03
      5.879  0.2590E+02  0.4700E+03
      5.966  0.3252E+02  0.4728E+03
      6.053  0.2482E+02  0.4750E+03
      6.141  0.2145E+02  0.4769E+03
      6.228  0.1409E+02  0.4781E+03
      6.315  0.2959E+01  0.4784E+03
      6.403 -0.5614E+00  0.4783E+03
      6.490  0.7513E+00  0.4784E+03
      6.577  0.7098E+01  0.4790E+03
      6.665  0.1824E+02  0.4806E+03
      6.752  0.1674E+02  0.4821E+03
      6.839  0.1480E+02  0.4834E+03
      6.927  0.7444E+01  0.4840E+03
      7.014  0.2280E+00  0.4840E+03
      7.101 -0.2620E+00  0.4840E+03
      7.189 -0.1658E-01  0.4840E+03
      7.276 -0.1818E-03  0.4840E+03
      7.363 -0.4012E-06  0.4840E+03
      7.451 -0.1850E-09  0.4840E+03
      7.538 -0.1865E-13  0.4840E+03
      7.625  0.0000E+00  0.4840E+03
      7.713  0.0000E+00  0.4840E+03
      7.800  0.0000E+00  0.4840E+03
      7.887  0.0000E+00  0.4840E+03
      7.975  0.0000E+00  0.4840E+03
      8.062  0.0000E+00  0.4840E+03
