 running   48 mpi-ranks, with    1 threads/rank, on    1 nodes
 distrk:  each k-point on   48 cores,    1 groups
 distr:  one band on   24 cores,    2 groups
 vasp.6.4.3 19Mar24 (build Oct  2 2024 09:01:45) complex                         
 POSCAR found type information on POSCAR AuO 
 POSCAR found :  2 types and      37 ions
 scaLAPACK will be used
 LDA part: xc-table for (Slater+PW92), standard interpolation
 POSCAR, INCAR and KPOINTS ok, starting setup
 FFT: planning ... GRIDC
 FFT: planning ... GRID_SOFT
 FFT: planning ... GRID
 WAVECAR not read
 WARNING: random wavefunctions but no delay for mixing, default for NELMDL
 entering main loop
       N       E                     dE             d eps       ncg     rms          rms(c)
DAV:   1     0.247355929585E+04    0.24736E+04   -0.15921E+05  2904   0.117E+03
DAV:   2     0.363060088732E+02   -0.24373E+04   -0.22527E+04  3336   0.271E+02
DAV:   3    -0.122579264243E+03   -0.15889E+03   -0.15154E+03  3312   0.622E+01
DAV:   4    -0.126902363590E+03   -0.43231E+01   -0.42861E+01  3248   0.103E+01
DAV:   5    -0.127052016286E+03   -0.14965E+00   -0.14933E+00  3472   0.190E+00    0.447E+01
RMM:   6    -0.121719010699E+03    0.53330E+01   -0.30268E+01  3119   0.116E+01    0.383E+01
RMM:   7    -0.133973048626E+03   -0.12254E+02   -0.38463E+01  3342   0.791E+00    0.323E+01
RMM:   8    -0.137417067400E+03   -0.34440E+01   -0.34203E+01  3418   0.847E+00    0.270E+01
RMM:   9    -0.118583083925E+03    0.18834E+02   -0.13749E+01  3274   0.611E+00    0.126E+01
RMM:  10    -0.115154482890E+03    0.34286E+01   -0.60873E+00  3280   0.442E+00    0.432E+00
RMM:  11    -0.115185683799E+03   -0.31201E-01   -0.18370E+00  3282   0.194E+00    0.679E+00
RMM:  12    -0.115015816689E+03    0.16987E+00   -0.10440E+00  3256   0.163E+00    0.274E+00
RMM:  13    -0.114900986679E+03    0.11483E+00   -0.71017E-02  3158   0.553E-01    0.209E+00
RMM:  14    -0.114808776292E+03    0.92210E-01   -0.47613E-02  3273   0.387E-01    0.641E-01
RMM:  15    -0.114804730308E+03    0.40460E-02   -0.17635E-02  3315   0.193E-01    0.217E-01
RMM:  16    -0.114807394105E+03   -0.26638E-02   -0.25472E-03  3261   0.808E-02    0.277E-01
RMM:  17    -0.114807453568E+03   -0.59462E-04   -0.18337E-03  3246   0.564E-02    0.534E-02
RMM:  18    -0.114807632981E+03   -0.17941E-03   -0.26791E-04  2178   0.246E-02    0.300E-02
RMM:  19    -0.114808326143E+03   -0.69316E-03   -0.23559E-04  2113   0.222E-02    0.209E-02
RMM:  20    -0.114808537336E+03   -0.21119E-03   -0.78169E-05  1923   0.126E-02    0.349E-02
RMM:  21    -0.114808719547E+03   -0.18221E-03   -0.49952E-05  1799   0.962E-03    0.198E-02
RMM:  22    -0.114808751595E+03   -0.32048E-04   -0.80931E-06   909   0.496E-03
   1 F= -.11480875E+03 E0= -.11479946E+03  d E =-.278707E-01
