<?xml version="1.0" encoding="ISO-8859-1"?>
<modeling>
 <generator>
  <i name="program" type="string">vasp </i>
  <i name="version" type="string">6.4.3  </i>
  <i name="subversion" type="string">19Mar24 (build Oct  2 2024 09:01:45) complex                          parallel </i>
  <i name="platform" type="string">LinuxGNU </i>
  <i name="date" type="string">2025 02 17 </i>
  <i name="time" type="string">19:38:36 </i>
 </generator>
 <incar>
  <i type="string" name="PREC">Accurate</i>
  <i type="string" name="ALGO">Fast</i>
  <i type="int" name="ICHARG">     2</i>
  <i type="int" name="IBRION">    -1</i>
  <i name="EDIFF">      0.00010000</i>
  <i name="EDIFFG">     -0.03000000</i>
  <i type="int" name="ISYM">     0</i>
  <i name="ENCUT">    400.00000000</i>
  <i type="string" name="LREAL">Auto</i>
  <i type="int" name="ISMEAR">     1</i>
  <i name="SIGMA">      0.10000000</i>
  <i type="logical" name="LWAVE"> F  </i>
  <i type="logical" name="LCHARG"> F  </i>
  <i type="string" name="GGA">PE</i>
  <i type="logical" name="LDIPOL"> T  </i>
  <i type="int" name="IDIPOL">     3</i>
 </incar>
 <primitive_cell>
  <structure name="primitive_cell" >
   <crystal>
    <varray name="basis" >
     <v>       8.80347943       0.00000000       0.00000000 </v>
     <v>       4.40173971       7.62403682       0.00000000 </v>
     <v>       0.00000000       0.00000000      23.18801085 </v>
    </varray>
    <i name="volume">   1556.33410245 </i>
    <varray name="rec_basis" >
     <v>       0.11359145      -0.06558205       0.00000000 </v>
     <v>       0.00000000       0.13116411       0.00000000 </v>
     <v>       0.00000000       0.00000000       0.04312573 </v>
    </varray>
   </crystal>
   <varray name="positions" >
    <v>       0.00000000       0.00000000       0.00000000 </v>
    <v>       0.33333333       0.00000000       0.00000000 </v>
    <v>       0.66666667       0.00000000       0.00000000 </v>
    <v>       0.00000000       0.33333333       0.00000000 </v>
    <v>       0.33333333       0.33333333       0.00000000 </v>
    <v>       0.66666667       0.33333333       0.00000000 </v>
    <v>       0.00000000       0.66666667       0.00000000 </v>
    <v>       0.33333333       0.66666667       0.00000000 </v>
    <v>       0.66666667       0.66666667       0.00000000 </v>
    <v>       0.11111111       0.11111111       0.10332942 </v>
    <v>       0.44444444       0.11111111       0.10332942 </v>
    <v>       0.77777778       0.11111111       0.10332942 </v>
    <v>       0.11111111       0.44444444       0.10332942 </v>
    <v>       0.44444444       0.44444444       0.10332942 </v>
    <v>       0.77777778       0.44444444       0.10332942 </v>
    <v>       0.11111111       0.77777778       0.10332942 </v>
    <v>       0.44444444       0.77777778       0.10332942 </v>
    <v>       0.77777778       0.77777778       0.10332942 </v>
    <v>       0.88901241       0.22358916       0.20687213 </v>
    <v>       0.21991860       0.22218644       0.20852840 </v>
    <v>       0.55240282       0.22181196       0.20624593 </v>
    <v>       0.89005389       0.55259094       0.20656730 </v>
    <v>       0.22004875       0.55422402       0.20624200 </v>
    <v>       0.55356059       0.55518775       0.20439117 </v>
    <v>       0.88778386       0.88942991       0.20457075 </v>
    <v>       0.22169860       0.89092981       0.20682724 </v>
    <v>       0.55067242       0.89200702       0.20650393 </v>
    <v>       0.99710842       0.00001670       0.30787463 </v>
    <v>       0.35255374       0.98200082       0.31457446 </v>
    <v>       0.67129332       0.00067947       0.30959745 </v>
    <v>       0.97821511       0.35585193       0.31498613 </v>
    <v>       0.33254333       0.33565575       0.31211451 </v>
    <v>       0.66058672       0.33500118       0.30900241 </v>
    <v>       0.99789325       0.67402275       0.30960759 </v>
    <v>       0.33204019       0.66380929       0.30895252 </v>
    <v>       0.66335443       0.66654516       0.30655996 </v>
    <v>       0.18610209       0.18906555       0.36804158 </v>
   </varray>
  </structure>
  <varray name="primitive_index" >
   <v type="int" >        1 </v>
   <v type="int" >        2 </v>
   <v type="int" >        3 </v>
   <v type="int" >        4 </v>
   <v type="int" >        5 </v>
   <v type="int" >        6 </v>
   <v type="int" >        7 </v>
   <v type="int" >        8 </v>
   <v type="int" >        9 </v>
   <v type="int" >       10 </v>
   <v type="int" >       11 </v>
   <v type="int" >       12 </v>
   <v type="int" >       13 </v>
   <v type="int" >       14 </v>
   <v type="int" >       15 </v>
   <v type="int" >       16 </v>
   <v type="int" >       17 </v>
   <v type="int" >       18 </v>
   <v type="int" >       19 </v>
   <v type="int" >       20 </v>
   <v type="int" >       21 </v>
   <v type="int" >       22 </v>
   <v type="int" >       23 </v>
   <v type="int" >       24 </v>
   <v type="int" >       25 </v>
   <v type="int" >       26 </v>
   <v type="int" >       27 </v>
   <v type="int" >       28 </v>
   <v type="int" >       29 </v>
   <v type="int" >       30 </v>
   <v type="int" >       31 </v>
   <v type="int" >       32 </v>
   <v type="int" >       33 </v>
   <v type="int" >       34 </v>
   <v type="int" >       35 </v>
   <v type="int" >       36 </v>
   <v type="int" >       37 </v>
  </varray>
 </primitive_cell>
 <kpoints>
  <generation param="Monkhorst-Pack">
   <v type="int" name="divisions">       2        2        1 </v>
   <v name="usershift">      0.00000000       0.00000000       0.00000000 </v>
   <v name="genvec1">      0.50000000       0.00000000       0.00000000 </v>
   <v name="genvec2">      0.00000000       0.50000000       0.00000000 </v>
   <v name="genvec3">      0.00000000       0.00000000       1.00000000 </v>
   <v name="shift">      0.50000000       0.50000000       0.00000000 </v>
  </generation>
  <varray name="kpointlist" >
   <v>       0.25000000       0.25000000       0.00000000 </v>
   <v>       0.00000000       0.25000000       0.00000000 </v>
   <v>      -0.25000000       0.00000000       0.00000000 </v>
   <v>      -0.25000000       0.25000000       0.00000000 </v>
   <v>       0.50000000      -0.25000000       0.00000000 </v>
   <v>      -0.25000000       0.50000000       0.00000000 </v>
  </varray>
  <varray name="weights" >
   <v>       0.16666667 </v>
   <v>       0.16666667 </v>
   <v>       0.16666667 </v>
   <v>       0.16666667 </v>
   <v>       0.16666667 </v>
   <v>       0.16666667 </v>
  </varray>
 </kpoints>
 <parameters>
  <separator name="general" >
   <i type="string" name="SYSTEM">unknown system</i>
   <i type="logical" name="LCOMPAT"> F  </i>
  </separator>
  <separator name="electronic" >
   <i type="string" name="PREC">accura</i>
   <i name="ENMAX">    400.00000000</i>
   <i name="ENAUG">    605.39200000</i>
   <i name="EDIFF">      0.00010000</i>
   <i type="int" name="IALGO">    68</i>
   <i type="int" name="IWAVPR">    10</i>
   <i type="int" name="NBANDS">   242</i>
   <i type="int" name="NBANDSLOW">    -1</i>
   <i type="int" name="NBANDSHIGH">    -1</i>
   <i name="NELECT">    402.00000000</i>
   <i type="int" name="TURBO">     0</i>
   <i type="int" name="IRESTART">     0</i>
   <i type="int" name="NREBOOT">     0</i>
   <i type="int" name="NMIN">     0</i>
   <i name="EREF">      0.00000000</i>
   <separator name="electronic smearing" >
    <i type="int" name="ISMEAR">     1</i>
    <i name="SIGMA">      0.10000000</i>
    <i name="KSPACING">      0.50000000</i>
    <i type="logical" name="KGAMMA"> T  </i>
    <i type="logical" name="KBLOWUP"> T  </i>
   </separator>
   <separator name="electronic projectors" >
    <i type="logical" name="LREAL"> T  </i>
    <v name="ROPT">     -0.00025000     -0.00025000</v>
    <i type="int" name="LMAXPAW">  -100</i>
    <i type="int" name="LMAXMIX">     2</i>
    <i type="logical" name="NLSPLINE"> F  </i>
   </separator>
   <separator name="electronic startup" >
    <i type="int" name="ISTART">     0</i>
    <i type="int" name="ICHARG">     2</i>
    <i type="int" name="INIWAV">     1</i>
   </separator>
   <separator name="electronic spin" >
    <i type="int" name="ISPIN">     1</i>
    <i type="logical" name="LNONCOLLINEAR"> F  </i>
    <v name="MAGMOM">      1.00000000      1.00000000      1.00000000      1.00000000      1.00000000      1.00000000      1.00000000      1.00000000      1.00000000      1.00000000      1.00000000      1.00000000      1.00000000      1.00000000      1.00000000      1.00000000      1.00000000      1.00000000      1.00000000      1.00000000
      1.00000000      1.00000000      1.00000000      1.00000000      1.00000000      1.00000000      1.00000000      1.00000000      1.00000000      1.00000000      1.00000000      1.00000000      1.00000000      1.00000000      1.00000000      1.00000000      1.00000000</v>
    <i name="NUPDOWN">     -1.00000000</i>
    <i type="logical" name="LSORBIT"> F  </i>
    <v name="SAXIS">      0.00000000      0.00000000      1.00000000</v>
    <i type="logical" name="LSPIRAL"> F  </i>
    <v name="QSPIRAL">      0.00000000      0.00000000      0.00000000</v>
    <i type="logical" name="LZEROZ"> F  </i>
   </separator>
   <separator name="electronic exchange-correlation" >
    <i type="logical" name="LASPH"> F  </i>
   </separator>
   <separator name="electronic convergence" >
    <i type="int" name="NELM">    60</i>
    <i type="int" name="NELMDL">     0</i>
    <i type="int" name="NELMIN">     2</i>
    <i name="ENINI">    400.00000000</i>
    <separator name="electronic convergence detail" >
     <i type="logical" name="LDIAG"> T  </i>
     <i type="logical" name="LSUBROT"> F  </i>
     <i name="WEIMIN">      0.00000000</i>
     <i name="EBREAK">      0.00000010</i>
     <i name="DEPER">      0.30000000</i>
     <i type="int" name="NRMM">     4</i>
     <i name="TIME">      0.40000000</i>
    </separator>
   </separator>
   <separator name="electronic mixer" >
    <i name="AMIX">      0.40000000</i>
    <i name="BMIX">      1.00000000</i>
    <i name="AMIN">      0.10000000</i>
    <i name="AMIX_MAG">      1.60000000</i>
    <i name="BMIX_MAG">      1.00000000</i>
    <separator name="electronic mixer details" >
     <i type="int" name="IMIX">     4</i>
     <i type="logical" name="MIXFIRST"> F  </i>
     <i type="int" name="MAXMIX">   -45</i>
     <i name="WC">    100.00000000</i>
     <i type="int" name="INIMIX">     1</i>
     <i type="int" name="MIXPRE">     1</i>
     <i type="int" name="MREMOVE">     5</i>
    </separator>
   </separator>
   <separator name="electronic dipolcorrection" >
    <i type="logical" name="LDIPOL"> T  </i>
    <i type="logical" name="LMONO"> F  </i>
    <i type="int" name="IDIPOL">     3</i>
    <i name="EPSILON">      1.00000000</i>
    <v name="DIPOL">   -100.00000000   -100.00000000   -100.00000000</v>
    <i name="EFIELD">      0.00000000</i>
    <i type="logical" name="LVACPOTAV"> F  </i>
   </separator>
  </separator>
  <separator name="grids" >
   <i type="int" name="NGX">    60</i>
   <i type="int" name="NGY">    60</i>
   <i type="int" name="NGZ">   160</i>
   <i type="int" name="NGXF">   120</i>
   <i type="int" name="NGYF">   120</i>
   <i type="int" name="NGZF">   320</i>
   <i type="logical" name="ADDGRID"> F  </i>
  </separator>
  <separator name="ionic" >
   <i type="int" name="NSW">     0</i>
   <i type="int" name="IBRION">    -1</i>
   <i type="int" name="MDALGO">     0</i>
   <i type="int" name="ISIF">     2</i>
   <i name="PSTRESS">      0.00000000</i>
   <i name="EDIFFG">     -0.03000000</i>
   <i type="int" name="NFREE">     0</i>
   <i name="POTIM">      0.50000000</i>
   <i name="SMASS">     -3.00000000</i>
   <i name="SCALEE">      1.00000000</i>
  </separator>
  <separator name="ionic md" >
   <i name="TEBEG">      0.00010000</i>
   <i name="TEEND">      0.00010000</i>
   <i type="int" name="NBLOCK">     1</i>
   <i type="int" name="KBLOCK">     1</i>
   <i type="int" name="NPACO">   256</i>
   <i name="APACO">     10.00000000</i>
  </separator>
  <separator name="symmetry" >
   <i type="int" name="ISYM">     0</i>
   <i name="SYMPREC">      0.00001000</i>
  </separator>
  <separator name="dos" >
   <i type="int" name="LORBIT">     0</i>
   <v name="RWIGS">     -1.00000000     -1.00000000</v>
   <i type="int" name="NEDOS">   301</i>
   <i name="EMIN">     10.00000000</i>
   <i name="EMAX">    -10.00000000</i>
   <i name="EFERMI">      0.00000000</i>
  </separator>
  <separator name="writing" >
   <i type="int" name="NWRITE">     2</i>
   <i type="logical" name="LWAVE"> F  </i>
   <i type="logical" name="LDOWNSAMPLE"> F  </i>
   <i type="logical" name="LCHARG"> F  </i>
   <i type="logical" name="LPARD"> F  </i>
   <i type="logical" name="LVTOT"> F  </i>
   <i type="logical" name="LVHAR"> F  </i>
   <i type="logical" name="LELF"> F  </i>
   <i type="logical" name="LOPTICS"> F  </i>
   <v name="STM">      0.00000000      0.00000000      0.00000000      0.00000000      0.00000000      0.00000000      0.00000000</v>
  </separator>
  <separator name="performance" >
   <i type="int" name="NPAR">     2</i>
   <i type="int" name="NSIM">     4</i>
   <i type="int" name="NBLK">    -1</i>
   <i type="logical" name="LPLANE"> T  </i>
   <i type="logical" name="LSCALAPACK"> T  </i>
   <i type="logical" name="LSCAAWARE"> F  </i>
   <i type="logical" name="LSCALU"> F  </i>
   <i type="logical" name="LASYNC"> F  </i>
   <i type="logical" name="LORBITALREAL"> F  </i>
  </separator>
  <separator name="miscellaneous" >
   <i type="int" name="IDIOT">     3</i>
   <i type="int" name="PHON_NSTRUCT">    -1</i>
   <i type="logical" name="LMUSIC"> F  </i>
   <v name="POMASS">    196.96600000     16.00000000</v>
   <v name="DARWINR">      0.00000000      0.00000000</v>
   <v name="DARWINV">      1.00000000      1.00000000</v>
   <i type="logical" name="LCORR"> T  </i>
  </separator>
  <i type="logical" name="GGA_COMPAT"> T  </i>
  <i type="logical" name="LBERRY"> F  </i>
  <i type="int" name="ICORELEVEL">     0</i>
  <i type="logical" name="LDAU"> F  </i>
  <i type="int" name="I_CONSTRAINED_M">     0</i>
  <separator name="electronic exchange-correlation" >
   <i type="string" name="GGA    ">PE</i>
   <i type="string" name="XC_C">1</i>
   <i type="int" name="VOSKOWN">     0</i>
   <i type="logical" name="LHFCALC"> F  </i>
   <i type="string" name="PRECFOCK"></i>
   <i type="logical" name="LSYMGRAD"> F  </i>
   <i type="logical" name="LHFONE"> F  </i>
   <i type="logical" name="LRHFCALC"> F  </i>
   <i type="logical" name="LTHOMAS"> F  </i>
   <i type="logical" name="LMODELHF"> F  </i>
   <i type="logical" name="LFOCKACE"> F  </i>
   <i name="ENCUT4O">     -1.00000000</i>
   <i type="int" name="EXXOEP">     0</i>
   <i type="int" name="FOURORBIT">     0</i>
   <i name="AEXX">      0.00000000</i>
   <i name="HFALPHA">      0.00000000</i>
   <i name="MCALPHA">      0.00000000</i>
   <i name="ALDAX">      1.00000000</i>
   <i name="AGGAX">      1.00000000</i>
   <i name="AMGGAX">      1.00000000</i>
   <i name="ALDAC">      1.00000000</i>
   <i name="AGGAC">      1.00000000</i>
   <i name="AMGGAC">      1.00000000</i>
   <i type="int" name="NKREDX">     1</i>
   <i type="int" name="NKREDY">     1</i>
   <i type="int" name="NKREDZ">     1</i>
   <i type="logical" name="SHIFTRED"> F  </i>
   <i type="logical" name="ODDONLY"> F  </i>
   <i type="logical" name="EVENONLY"> F  </i>
   <i type="int" name="LMAXFOCK">     0</i>
   <i type="int" name="NMAXFOCKAE">     0</i>
   <i type="logical" name="LFOCKAEDFT"> F  </i>
   <i name="HFSCREEN">      0.00000000</i>
   <i name="HFSCREENC">      0.00000000</i>
   <i type="int" name="NBANDSGWLOW">     0</i>
  </separator>
  <separator name="vdW DFT" >
   <i type="logical" name="LUSE_VDW"> F  </i>
   <i type="int" name="IVDW_NL">    -1</i>
   <i type="logical" name="LSPIN_VDW"> F  </i>
   <i name="ZAB_VDW">     -0.84910000</i>
   <i name="GAMMA_VDW">      1.39626340</i>
   <i name="ALPHA_VDW">      0.00000000</i>
   <i name="PARAM1">      0.12340000</i>
   <i name="PARAM2">      1.00000000</i>
   <i name="BPARAM">      6.30000000</i>
   <i name="CPARAM">      0.00930000</i>
  </separator>
  <separator name="model GW" >
   <i type="int" name="MODEL_GW">     0</i>
   <i name="MODEL_EPS0">     25.23785031</i>
   <i name="MODEL_ALPHA">      1.00000000</i>
  </separator>
  <separator name="linear response parameters" >
   <i type="logical" name="LEPSILON"> F  </i>
   <i type="logical" name="LRPA"> F  </i>
   <i type="logical" name="LNABLA"> F  </i>
   <i type="logical" name="LVEL"> F  </i>
   <i name="CSHIFT">      0.10000000</i>
   <i name="OMEGAMAX">     -1.00000000</i>
   <i name="DEG_THRESHOLD">      0.00200000</i>
   <i name="RTIME">     -0.10000000</i>
   <i name="WPLASMAI">      0.00000000</i>
   <v name="DFIELD">      0.00000000      0.00000000      0.00000000</v>
   <v name="WPLASMA">      0.00000000      0.00000000      0.00000000      0.00000000      0.00000000      0.00000000      0.00000000      0.00000000      0.00000000</v>
  </separator>
  <separator name="orbital magnetization" >
   <i type="logical" name="NUCIND"> F  </i>
   <v name="MAGPOS">      0.00000000      0.00000000      0.00000000</v>
   <i type="logical" name="LNICSALL"> T  </i>
   <i type="logical" name="ORBITALMAG"> F  </i>
   <i type="logical" name="LMAGBLOCH"> F  </i>
   <i type="logical" name="LCHIMAG"> F  </i>
   <i type="logical" name="LGAUGE"> T  </i>
   <i type="int" name="MAGATOM">     0</i>
   <v name="MAGDIPOL">      0.00000000      0.00000000      0.00000000</v>
   <v name="AVECCONST">      0.00000000      0.00000000      0.00000000</v>
  </separator>
  <separator name="response functions" >
   <i type="logical" name="LALL_IN_ONE"> F  </i>
   <i type="int" name="IALL_IN_ONE">    -1</i>
   <i type="int" name="NBANDS_WAVE">    -1</i>
   <i type="logical" name="LFINITE_TEMPERATURE"> F  </i>
   <i type="logical" name="LADDER"> F  </i>
   <i type="logical" name="LRPAFORCE"> F  </i>
   <i type="logical" name="LFXC"> F  </i>
   <i type="logical" name="LHARTREE"> T  </i>
   <i type="int" name="IBSE">     0</i>
   <v type="int" name="KPOINT">    -1     0     0     0</v>
   <i type="logical" name="LTCTC"> F  </i>
   <i type="logical" name="LTCTE"> F  </i>
   <i type="logical" name="LTETE"> F  </i>
   <i type="logical" name="LTRIPLET"> F  </i>
   <i type="logical" name="LFXCEPS"> F  </i>
   <i type="logical" name="LFXHEG"> F  </i>
   <i type="int" name="NATURALO">     2</i>
   <i type="logical" name="LHOLEGF"> F  </i>
   <i type="logical" name="L2ORDER"> F  </i>
   <i type="logical" name="LDMP1"> F  </i>
   <i type="logical" name="LMP2LT"> F  </i>
   <i type="logical" name="LSMP2LT"> F  </i>
   <i type="logical" name="LGWLF"> F  </i>
   <i name="ENCUTGW">     -1.60000002</i>
   <i name="ENCUTGWSOFT">     -1.60000002</i>
   <i name="ENCUTLF">     -1.00000000</i>
   <i type="logical" name="ESF_SPLINES"> F  </i>
   <i name="ESF_CONV">      0.01000000</i>
   <i type="int" name="ESF_NINTER">    15</i>
   <i type="int" name="LMAXMP2">    -1</i>
   <i name="SCISSOR">      0.00000000</i>
   <i type="int" name="NOMEGA">     0</i>
   <i type="int" name="NOMEGAR">     0</i>
   <i type="int" name="NBANDSGW">    -1</i>
   <i type="int" name="NBANDSO">    -1</i>
   <i type="int" name="NBANDSV">    -1</i>
   <i type="int" name="NELMGW">     1</i>
   <i type="int" name="NELMHF">     1</i>
   <i type="int" name="DIM">     3</i>
   <i type="int" name="IESPILON">     4</i>
   <i type="int" name="ANTIRES">     0</i>
   <i name="OMEGAMAX">    -30.00000000</i>
   <i name="OMEGAMIN">    -30.00000000</i>
   <i name="OMEGATL">   -200.00000000</i>
   <i type="int" name="OMEGAGRID">     0</i>
   <i name="CSHIFT">     -0.10000000</i>
   <i type="logical" name="LSELFENERGY"> F  </i>
   <i type="logical" name="LSPECTRAL"> F  </i>
   <i type="logical" name="LSPECTRALGW"> F  </i>
   <i type="logical" name="LSINGLES"> F  </i>
   <i type="logical" name="LFERMIGW"> F  </i>
   <i type="logical" name="ODDONLYGW"> F  </i>
   <i type="logical" name="EVENONLYGW"> F  </i>
   <i type="int" name="NKREDLFX">     1</i>
   <i type="int" name="NKREDLFY">     1</i>
   <i type="int" name="NKREDLFZ">     1</i>
   <i type="int" name="MAXMEM">  2800</i>
   <i type="int" name="TELESCOPE">     0</i>
   <i type="int" name="NTAUPAR">    -1</i>
   <i type="int" name="NOMEGAPAR">    -1</i>
   <i name="DAMP_NEWTON">      0.80000001</i>
   <i name="LAMBDA">      1.00000000</i>
  </separator>
  <separator name="External order field" >
   <i name="OFIELD_KAPPA">      0.00000000</i>
   <v name="OFIELD_K">      0.00000000      0.00000000      0.00000000</v>
   <i name="OFIELD_Q6_NEAR">      0.00000000</i>
   <i name="OFIELD_Q6_FAR">      0.00000000</i>
   <i name="OFIELD_A">      0.00000000</i>
  </separator>
  <separator name="optional k-points parameters" >
   <i type="int" name="KPOINTS_OPT_MODE">     1</i>
   <i type="logical" name="LKPOINTS_OPT"> F  </i>
  </separator>
 </parameters>
 <atominfo>
  <atoms>      37 </atoms>
  <types>       2 </types>
  <array name="atoms" >
   <dimension dim="1">ion</dimension>
   <field type="string">element</field>
   <field type="int">atomtype</field>
   <set>
    <rc><c>Au</c><c>   1</c></rc>
    <rc><c>Au</c><c>   1</c></rc>
    <rc><c>Au</c><c>   1</c></rc>
    <rc><c>Au</c><c>   1</c></rc>
    <rc><c>Au</c><c>   1</c></rc>
    <rc><c>Au</c><c>   1</c></rc>
    <rc><c>Au</c><c>   1</c></rc>
    <rc><c>Au</c><c>   1</c></rc>
    <rc><c>Au</c><c>   1</c></rc>
    <rc><c>Au</c><c>   1</c></rc>
    <rc><c>Au</c><c>   1</c></rc>
    <rc><c>Au</c><c>   1</c></rc>
    <rc><c>Au</c><c>   1</c></rc>
    <rc><c>Au</c><c>   1</c></rc>
    <rc><c>Au</c><c>   1</c></rc>
    <rc><c>Au</c><c>   1</c></rc>
    <rc><c>Au</c><c>   1</c></rc>
    <rc><c>Au</c><c>   1</c></rc>
    <rc><c>Au</c><c>   1</c></rc>
    <rc><c>Au</c><c>   1</c></rc>
    <rc><c>Au</c><c>   1</c></rc>
    <rc><c>Au</c><c>   1</c></rc>
    <rc><c>Au</c><c>   1</c></rc>
    <rc><c>Au</c><c>   1</c></rc>
    <rc><c>Au</c><c>   1</c></rc>
    <rc><c>Au</c><c>   1</c></rc>
    <rc><c>Au</c><c>   1</c></rc>
    <rc><c>Au</c><c>   1</c></rc>
    <rc><c>Au</c><c>   1</c></rc>
    <rc><c>Au</c><c>   1</c></rc>
    <rc><c>Au</c><c>   1</c></rc>
    <rc><c>Au</c><c>   1</c></rc>
    <rc><c>Au</c><c>   1</c></rc>
    <rc><c>Au</c><c>   1</c></rc>
    <rc><c>Au</c><c>   1</c></rc>
    <rc><c>Au</c><c>   1</c></rc>
    <rc><c>O </c><c>   2</c></rc>
   </set>
  </array>
  <array name="atomtypes" >
   <dimension dim="1">type</dimension>
   <field type="int">atomspertype</field>
   <field type="string">element</field>
   <field>mass</field>
   <field>valence</field>
   <field type="string">pseudopotential</field>
   <set>
    <rc><c>  36</c><c>Au</c><c>    196.96600000</c><c>     11.00000000</c><c>  PAW_PBE Au 04Oct2007                  </c></rc>
    <rc><c>   1</c><c>O </c><c>     16.00000000</c><c>      6.00000000</c><c>  PAW_PBE O 08Apr2002                   </c></rc>
   </set>
  </array>
 </atominfo>
 <structure name="initialpos" >
  <crystal>
   <varray name="basis" >
    <v>       8.80347943       0.00000000       0.00000000 </v>
    <v>       4.40173971       7.62403682       0.00000000 </v>
    <v>       0.00000000       0.00000000      23.18801085 </v>
   </varray>
   <i name="volume">   1556.33410245 </i>
   <varray name="rec_basis" >
    <v>       0.11359145      -0.06558205       0.00000000 </v>
    <v>       0.00000000       0.13116411       0.00000000 </v>
    <v>       0.00000000       0.00000000       0.04312573 </v>
   </varray>
  </crystal>
  <varray name="positions" >
   <v>       0.00000000       0.00000000       0.00000000 </v>
   <v>       0.33333333       0.00000000       0.00000000 </v>
   <v>       0.66666667       0.00000000       0.00000000 </v>
   <v>       0.00000000       0.33333333       0.00000000 </v>
   <v>       0.33333333       0.33333333       0.00000000 </v>
   <v>       0.66666667       0.33333333       0.00000000 </v>
   <v>       0.00000000       0.66666667       0.00000000 </v>
   <v>       0.33333333       0.66666667       0.00000000 </v>
   <v>       0.66666667       0.66666667       0.00000000 </v>
   <v>       0.11111111       0.11111111       0.10332942 </v>
   <v>       0.44444444       0.11111111       0.10332942 </v>
   <v>       0.77777778       0.11111111       0.10332942 </v>
   <v>       0.11111111       0.44444444       0.10332942 </v>
   <v>       0.44444444       0.44444444       0.10332942 </v>
   <v>       0.77777778       0.44444444       0.10332942 </v>
   <v>       0.11111111       0.77777778       0.10332942 </v>
   <v>       0.44444444       0.77777778       0.10332942 </v>
   <v>       0.77777778       0.77777778       0.10332942 </v>
   <v>       0.88901241       0.22358916       0.20687213 </v>
   <v>       0.21991860       0.22218644       0.20852840 </v>
   <v>       0.55240282       0.22181196       0.20624593 </v>
   <v>       0.89005389       0.55259094       0.20656730 </v>
   <v>       0.22004875       0.55422402       0.20624200 </v>
   <v>       0.55356059       0.55518775       0.20439117 </v>
   <v>       0.88778386       0.88942991       0.20457075 </v>
   <v>       0.22169860       0.89092981       0.20682724 </v>
   <v>       0.55067242       0.89200702       0.20650393 </v>
   <v>       0.99710842       0.00001670       0.30787463 </v>
   <v>       0.35255374       0.98200082       0.31457446 </v>
   <v>       0.67129332       0.00067947       0.30959745 </v>
   <v>       0.97821511       0.35585193       0.31498613 </v>
   <v>       0.33254333       0.33565575       0.31211451 </v>
   <v>       0.66058672       0.33500118       0.30900241 </v>
   <v>       0.99789325       0.67402275       0.30960759 </v>
   <v>       0.33204019       0.66380929       0.30895252 </v>
   <v>       0.66335443       0.66654516       0.30655996 </v>
   <v>       0.18610209       0.18906555       0.36804158 </v>
  </varray>
  <varray name="selective"  type="logical" >
   <v type="logical" >  F  F  F </v>
   <v type="logical" >  F  F  F </v>
   <v type="logical" >  F  F  F </v>
   <v type="logical" >  F  F  F </v>
   <v type="logical" >  F  F  F </v>
   <v type="logical" >  F  F  F </v>
   <v type="logical" >  F  F  F </v>
   <v type="logical" >  F  F  F </v>
   <v type="logical" >  F  F  F </v>
   <v type="logical" >  F  F  F </v>
   <v type="logical" >  F  F  F </v>
   <v type="logical" >  F  F  F </v>
   <v type="logical" >  F  F  F </v>
   <v type="logical" >  F  F  F </v>
   <v type="logical" >  F  F  F </v>
   <v type="logical" >  F  F  F </v>
   <v type="logical" >  F  F  F </v>
   <v type="logical" >  F  F  F </v>
   <v type="logical" >  T  T  T </v>
   <v type="logical" >  T  T  T </v>
   <v type="logical" >  T  T  T </v>
   <v type="logical" >  T  T  T </v>
   <v type="logical" >  T  T  T </v>
   <v type="logical" >  T  T  T </v>
   <v type="logical" >  T  T  T </v>
   <v type="logical" >  T  T  T </v>
   <v type="logical" >  T  T  T </v>
   <v type="logical" >  T  T  T </v>
   <v type="logical" >  T  T  T </v>
   <v type="logical" >  T  T  T </v>
   <v type="logical" >  T  T  T </v>
   <v type="logical" >  T  T  T </v>
   <v type="logical" >  T  T  T </v>
   <v type="logical" >  T  T  T </v>
   <v type="logical" >  T  T  T </v>
   <v type="logical" >  T  T  T </v>
   <v type="logical" >  T  T  T </v>
  </varray>
  <nose>
   <v>      -3.00000000       0.00000000       0.00010000       0.00010000 </v>
  </nose>
 </structure>
 <calculation>
  <scstep>
   <time name="dav">    3.74    3.76</time>
   <time name="total">    3.81    3.83</time>
   <dipole>
    <v name="dipole">      0.00000000       0.00000000       0.00012087 </v>
    <i name="Tr[quadrupol]">  -4982.20661456 </i>
    <i name="Echarged">      0.00000000 </i>
    <i name="Edipol_quadrupol">      0.00000000 </i>
    <i name="Eion">      0.00000000 </i>
   </dipole>
   <energy>
    <i name="alphaZ">    990.63735050 </i>
    <i name="ewald"> 112875.88404225 </i>
    <i name="hartreedc">-148194.63744224 </i>
    <i name="XCdc">    577.49368728 </i>
    <i name="pawpsdc">  31814.05959759 </i>
    <i name="pawaedc"> -30984.71300122 </i>
    <i name="eentropy">     -0.01184298 </i>
    <i name="bandstr">   1623.68503301 </i>
    <i name="atom">  33771.16187166 </i>
    <i name="e_fr_energy">   2473.55929585 </i>
    <i name="e_wo_entrp">   2473.57113883 </i>
    <i name="e_0_energy">   2473.56324351 </i>
   </energy>
  </scstep>
  <scstep>
   <time name="dav">    4.14    4.16</time>
   <time name="total">    4.14    4.16</time>
   <dipole>
    <v name="dipole">      0.00000000       0.00000000       0.00012087 </v>
    <i name="Tr[quadrupol]">  -4982.20661456 </i>
    <i name="Echarged">      0.00000000 </i>
    <i name="Edipol_quadrupol">      0.00000000 </i>
    <i name="Eion">      0.00000000 </i>
   </dipole>
   <energy>
    <i name="e_fr_energy">     36.30600887 </i>
    <i name="e_wo_entrp">     36.31122443 </i>
    <i name="e_0_energy">     36.30774739 </i>
   </energy>
  </scstep>
  <scstep>
   <time name="dav">    4.13    4.15</time>
   <time name="total">    4.13    4.15</time>
   <dipole>
    <v name="dipole">      0.00000000       0.00000000       0.00012087 </v>
    <i name="Tr[quadrupol]">  -4982.20661456 </i>
    <i name="Echarged">      0.00000000 </i>
    <i name="Edipol_quadrupol">      0.00000000 </i>
    <i name="Eion">      0.00000000 </i>
   </dipole>
   <energy>
    <i name="e_fr_energy">   -122.57926424 </i>
    <i name="e_wo_entrp">   -122.56816730 </i>
    <i name="e_0_energy">   -122.57556526 </i>
   </energy>
  </scstep>
  <scstep>
   <time name="dav">    4.07    4.12</time>
   <time name="total">    4.07    4.12</time>
   <dipole>
    <v name="dipole">      0.00000000       0.00000000       0.00012087 </v>
    <i name="Tr[quadrupol]">  -4982.20661456 </i>
    <i name="Echarged">      0.00000000 </i>
    <i name="Edipol_quadrupol">      0.00000000 </i>
    <i name="Eion">      0.00000000 </i>
   </dipole>
   <energy>
    <i name="e_fr_energy">   -126.90236359 </i>
    <i name="e_wo_entrp">   -126.89030228 </i>
    <i name="e_0_energy">   -126.89834315 </i>
   </energy>
  </scstep>
  <scstep>
   <time name="dav">    4.29    4.31</time>
   <time name="total">    4.45    4.47</time>
   <dipole>
    <v name="dipole">      0.00000000       0.00000000       0.00012087 </v>
    <i name="Tr[quadrupol]">  -4982.20661456 </i>
    <i name="Echarged">      0.00000000 </i>
    <i name="Edipol_quadrupol">      0.00000000 </i>
    <i name="Eion">      0.00000000 </i>
   </dipole>
   <energy>
    <i name="e_fr_energy">   -127.05201629 </i>
    <i name="e_wo_entrp">   -127.03991452 </i>
    <i name="e_0_energy">   -127.04798236 </i>
   </energy>
  </scstep>
  <scstep>
   <time name="diag">    0.59    0.60</time>
   <time name="diis">    2.34    2.35</time>
   <time name="orth">    0.09    0.09</time>
   <time name="total">    3.23    3.25</time>
   <dipole>
    <v name="dipole">      0.00000000       0.00000000       0.63296304 </v>
    <i name="Tr[quadrupol]">  -4978.59847245 </i>
    <i name="Echarged">      0.00000000 </i>
    <i name="Edipol_quadrupol">      0.00000000 </i>
    <i name="Eion">      0.00000000 </i>
   </dipole>
   <energy>
    <i name="e_fr_energy">   -121.71901070 </i>
    <i name="e_wo_entrp">   -121.72766716 </i>
    <i name="e_0_energy">   -121.72189619 </i>
   </energy>
  </scstep>
  <scstep>
   <time name="diag">    0.59    0.59</time>
   <time name="diis">    2.52    2.54</time>
   <time name="orth">    0.09    0.09</time>
   <time name="total">    3.40    3.42</time>
   <dipole>
    <v name="dipole">      0.00000000       0.00000000      -1.48579203 </v>
    <i name="Tr[quadrupol]">  -4979.42425473 </i>
    <i name="Echarged">      0.00000000 </i>
    <i name="Edipol_quadrupol">      0.00000000 </i>
    <i name="Eion">      0.00000000 </i>
   </dipole>
   <energy>
    <i name="e_fr_energy">   -133.97304863 </i>
    <i name="e_wo_entrp">   -133.98333110 </i>
    <i name="e_0_energy">   -133.97647612 </i>
   </energy>
  </scstep>
  <scstep>
   <time name="diag">    0.58    0.59</time>
   <time name="diis">    2.55    2.56</time>
   <time name="orth">    0.09    0.09</time>
   <time name="total">    3.43    3.44</time>
   <dipole>
    <v name="dipole">      0.00000000       0.00000000       1.75382981 </v>
    <i name="Tr[quadrupol]">  -4982.58327534 </i>
    <i name="Echarged">      0.00000000 </i>
    <i name="Edipol_quadrupol">      0.00000000 </i>
    <i name="Eion">      0.00000000 </i>
   </dipole>
   <energy>
    <i name="e_fr_energy">   -137.41706740 </i>
    <i name="e_wo_entrp">   -137.43306610 </i>
    <i name="e_0_energy">   -137.42240030 </i>
   </energy>
  </scstep>
  <scstep>
   <time name="diag">    0.58    0.59</time>
   <time name="diis">    2.46    2.48</time>
   <time name="orth">    0.09    0.09</time>
   <time name="total">    3.34    3.36</time>
   <dipole>
    <v name="dipole">      0.00000000       0.00000000      -0.15062920 </v>
    <i name="Tr[quadrupol]">  -4980.84286660 </i>
    <i name="Echarged">      0.00000000 </i>
    <i name="Edipol_quadrupol">      0.00000000 </i>
    <i name="Eion">      0.00000000 </i>
   </dipole>
   <energy>
    <i name="e_fr_energy">   -118.58308393 </i>
    <i name="e_wo_entrp">   -118.56464109 </i>
    <i name="e_0_energy">   -118.57693631 </i>
   </energy>
  </scstep>
  <scstep>
   <time name="diag">    0.58    0.59</time>
   <time name="diis">    2.47    2.48</time>
   <time name="orth">    0.09    0.09</time>
   <time name="total">    3.35    3.36</time>
   <dipole>
    <v name="dipole">      0.00000000       0.00000000      -0.02022684 </v>
    <i name="Tr[quadrupol]">  -4977.54629443 </i>
    <i name="Echarged">      0.00000000 </i>
    <i name="Edipol_quadrupol">      0.00000000 </i>
    <i name="Eion">      0.00000000 </i>
   </dipole>
   <energy>
    <i name="e_fr_energy">   -115.15448289 </i>
    <i name="e_wo_entrp">   -115.13820313 </i>
    <i name="e_0_energy">   -115.14905630 </i>
   </energy>
  </scstep>
  <scstep>
   <time name="diag">    0.58    0.58</time>
   <time name="diis">    2.46    2.48</time>
   <time name="orth">    0.09    0.09</time>
   <time name="total">    3.34    3.36</time>
   <dipole>
    <v name="dipole">      0.00000000       0.00000000       0.11376005 </v>
    <i name="Tr[quadrupol]">  -4977.59948107 </i>
    <i name="Echarged">      0.00000000 </i>
    <i name="Edipol_quadrupol">      0.00000000 </i>
    <i name="Eion">      0.00000000 </i>
   </dipole>
   <energy>
    <i name="e_fr_energy">   -115.18568380 </i>
    <i name="e_wo_entrp">   -115.17667626 </i>
    <i name="e_0_energy">   -115.18268129 </i>
   </energy>
  </scstep>
  <scstep>
   <time name="diag">    0.58    0.58</time>
   <time name="diis">    2.44    2.45</time>
   <time name="orth">    0.09    0.09</time>
   <time name="total">    3.32    3.33</time>
   <dipole>
    <v name="dipole">      0.00000000       0.00000000       0.12517807 </v>
    <i name="Tr[quadrupol]">  -4978.85420583 </i>
    <i name="Echarged">      0.00000000 </i>
    <i name="Edipol_quadrupol">      0.00000000 </i>
    <i name="Eion">      0.00000000 </i>
   </dipole>
   <energy>
    <i name="e_fr_energy">   -115.01581669 </i>
    <i name="e_wo_entrp">   -115.01038289 </i>
    <i name="e_0_energy">   -115.01400542 </i>
   </energy>
  </scstep>
  <scstep>
   <time name="diag">    0.58    0.58</time>
   <time name="diis">    2.35    2.37</time>
   <time name="orth">    0.08    0.09</time>
   <time name="total">    3.23    3.25</time>
   <dipole>
    <v name="dipole">      0.00000000       0.00000000       0.11769899 </v>
    <i name="Tr[quadrupol]">  -4978.51669157 </i>
    <i name="Echarged">      0.00000000 </i>
    <i name="Edipol_quadrupol">      0.00000000 </i>
    <i name="Eion">      0.00000000 </i>
   </dipole>
   <energy>
    <i name="e_fr_energy">   -114.90098668 </i>
    <i name="e_wo_entrp">   -114.88884445 </i>
    <i name="e_0_energy">   -114.89693927 </i>
   </energy>
  </scstep>
  <scstep>
   <time name="diag">    0.58    0.58</time>
   <time name="diis">    2.48    2.49</time>
   <time name="orth">    0.09    0.09</time>
   <time name="total">    3.36    3.37</time>
   <dipole>
    <v name="dipole">      0.00000000       0.00000000       0.12902054 </v>
    <i name="Tr[quadrupol]">  -4978.22312201 </i>
    <i name="Echarged">      0.00000000 </i>
    <i name="Edipol_quadrupol">      0.00000000 </i>
    <i name="Eion">      0.00000000 </i>
   </dipole>
   <energy>
    <i name="e_fr_energy">   -114.80877629 </i>
    <i name="e_wo_entrp">   -114.78303479 </i>
    <i name="e_0_energy">   -114.80019579 </i>
   </energy>
  </scstep>
  <scstep>
   <time name="diag">    0.58    0.59</time>
   <time name="diis">    2.49    2.51</time>
   <time name="orth">    0.09    0.09</time>
   <time name="total">    3.37    3.39</time>
   <dipole>
    <v name="dipole">      0.00000000       0.00000000       0.13859582 </v>
    <i name="Tr[quadrupol]">  -4978.20201234 </i>
    <i name="Echarged">      0.00000000 </i>
    <i name="Edipol_quadrupol">      0.00000000 </i>
    <i name="Eion">      0.00000000 </i>
   </dipole>
   <energy>
    <i name="e_fr_energy">   -114.80473031 </i>
    <i name="e_wo_entrp">   -114.77659319 </i>
    <i name="e_0_energy">   -114.79535127 </i>
   </energy>
  </scstep>
  <scstep>
   <time name="diag">    0.58    0.58</time>
   <time name="diis">    2.45    2.46</time>
   <time name="orth">    0.09    0.09</time>
   <time name="total">    3.33    3.35</time>
   <dipole>
    <v name="dipole">      0.00000000       0.00000000       0.13226288 </v>
    <i name="Tr[quadrupol]">  -4978.27908509 </i>
    <i name="Echarged">      0.00000000 </i>
    <i name="Edipol_quadrupol">      0.00000000 </i>
    <i name="Eion">      0.00000000 </i>
   </dipole>
   <energy>
    <i name="e_fr_energy">   -114.80739411 </i>
    <i name="e_wo_entrp">   -114.78054169 </i>
    <i name="e_0_energy">   -114.79844330 </i>
   </energy>
  </scstep>
  <scstep>
   <time name="diag">    0.58    0.58</time>
   <time name="diis">    2.45    2.47</time>
   <time name="orth">    0.09    0.09</time>
   <time name="total">    3.33    3.35</time>
   <dipole>
    <v name="dipole">      0.00000000       0.00000000       0.13532352 </v>
    <i name="Tr[quadrupol]">  -4978.26836188 </i>
    <i name="Echarged">      0.00000000 </i>
    <i name="Edipol_quadrupol">      0.00000000 </i>
    <i name="Eion">      0.00000000 </i>
   </dipole>
   <energy>
    <i name="e_fr_energy">   -114.80745357 </i>
    <i name="e_wo_entrp">   -114.77961060 </i>
    <i name="e_0_energy">   -114.79817258 </i>
   </energy>
  </scstep>
  <scstep>
   <time name="diag">    0.58    0.58</time>
   <time name="diis">    1.74    1.75</time>
   <time name="orth">    0.09    0.09</time>
   <time name="total">    2.62    2.63</time>
   <dipole>
    <v name="dipole">      0.00000000       0.00000000       0.13817642 </v>
    <i name="Tr[quadrupol]">  -4978.28665643 </i>
    <i name="Echarged">      0.00000000 </i>
    <i name="Edipol_quadrupol">      0.00000000 </i>
    <i name="Eion">      0.00000000 </i>
   </dipole>
   <energy>
    <i name="e_fr_energy">   -114.80763298 </i>
    <i name="e_wo_entrp">   -114.77975868 </i>
    <i name="e_0_energy">   -114.79834155 </i>
   </energy>
  </scstep>
  <scstep>
   <time name="diag">    0.58    0.58</time>
   <time name="diis">    1.70    1.70</time>
   <time name="orth">    0.09    0.09</time>
   <time name="total">    2.57    2.59</time>
   <dipole>
    <v name="dipole">      0.00000000       0.00000000       0.13350024 </v>
    <i name="Tr[quadrupol]">  -4978.07764018 </i>
    <i name="Echarged">      0.00000000 </i>
    <i name="Edipol_quadrupol">      0.00000000 </i>
    <i name="Eion">      0.00000000 </i>
   </dipole>
   <energy>
    <i name="e_fr_energy">   -114.80832614 </i>
    <i name="e_wo_entrp">   -114.78051863 </i>
    <i name="e_0_energy">   -114.79905697 </i>
   </energy>
  </scstep>
  <scstep>
   <time name="diag">    0.58    0.58</time>
   <time name="diis">    1.58    1.58</time>
   <time name="orth">    0.09    0.09</time>
   <time name="total">    2.45    2.47</time>
   <dipole>
    <v name="dipole">      0.00000000       0.00000000       0.13856250 </v>
    <i name="Tr[quadrupol]">  -4977.99246503 </i>
    <i name="Echarged">      0.00000000 </i>
    <i name="Edipol_quadrupol">      0.00000000 </i>
    <i name="Eion">      0.00000000 </i>
   </dipole>
   <energy>
    <i name="e_fr_energy">   -114.80853734 </i>
    <i name="e_wo_entrp">   -114.78057737 </i>
    <i name="e_0_energy">   -114.79921735 </i>
   </energy>
  </scstep>
  <scstep>
   <time name="diag">    0.58    0.59</time>
   <time name="diis">    1.50    1.51</time>
   <time name="orth">    0.09    0.09</time>
   <time name="total">    2.38    2.40</time>
   <dipole>
    <v name="dipole">      0.00000000       0.00000000       0.14241815 </v>
    <i name="Tr[quadrupol]">  -4977.94030872 </i>
    <i name="Echarged">      0.00000000 </i>
    <i name="Edipol_quadrupol">      0.00000000 </i>
    <i name="Eion">      0.00000000 </i>
   </dipole>
   <energy>
    <i name="e_fr_energy">   -114.80871955 </i>
    <i name="e_wo_entrp">   -114.78081229 </i>
    <i name="e_0_energy">   -114.79941713 </i>
   </energy>
  </scstep>
  <scstep>
   <time name="diag">    0.58    0.59</time>
   <time name="diis">    1.08    1.08</time>
   <time name="orth">    0.09    0.09</time>
   <time name="total">    1.80    1.81</time>
   <dipole>
    <v name="dipole">      0.00000000       0.00000000       0.14298756 </v>
    <i name="Tr[quadrupol]">  -4977.91050338 </i>
    <i name="Echarged">      0.00000000 </i>
    <i name="Edipol_quadrupol">      0.00000000 </i>
    <i name="Eion">      0.00000000 </i>
   </dipole>
   <energy>
    <i name="alphaZ">    990.81844401 </i>
    <i name="ewald"> 112875.88404225 </i>
    <i name="hartreedc">-147700.59907125 </i>
    <i name="XCdc">    561.03704454 </i>
    <i name="pawpsdc">  36792.55476788 </i>
    <i name="pawaedc"> -36044.67652126 </i>
    <i name="eentropy">     -0.02787073 </i>
    <i name="bandstr">  -1360.96145870 </i>
    <i name="atom">  33771.16187166 </i>
    <i name="e_fr_energy">   -114.80875160 </i>
    <i name="e_wo_entrp">   -114.78088087 </i>
    <i name="e_0_energy">   -114.79946135 </i>
   </energy>
  </scstep>
  <structure>
   <crystal>
    <varray name="basis" >
     <v>       8.80347943       0.00000000       0.00000000 </v>
     <v>       4.40173971       7.62403682       0.00000000 </v>
     <v>       0.00000000       0.00000000      23.18801085 </v>
    </varray>
    <i name="volume">   1556.33410245 </i>
    <varray name="rec_basis" >
     <v>       0.11359145      -0.06558205       0.00000000 </v>
     <v>       0.00000000       0.13116411       0.00000000 </v>
     <v>       0.00000000       0.00000000       0.04312573 </v>
    </varray>
   </crystal>
   <varray name="positions" >
    <v>       0.00000000       0.00000000       0.00000000 </v>
    <v>       0.33333333       0.00000000       0.00000000 </v>
    <v>       0.66666667       0.00000000       0.00000000 </v>
    <v>       0.00000000       0.33333333       0.00000000 </v>
    <v>       0.33333333       0.33333333       0.00000000 </v>
    <v>       0.66666667       0.33333333       0.00000000 </v>
    <v>       0.00000000       0.66666667       0.00000000 </v>
    <v>       0.33333333       0.66666667       0.00000000 </v>
    <v>       0.66666667       0.66666667       0.00000000 </v>
    <v>       0.11111111       0.11111111       0.10332942 </v>
    <v>       0.44444444       0.11111111       0.10332942 </v>
    <v>       0.77777778       0.11111111       0.10332942 </v>
    <v>       0.11111111       0.44444444       0.10332942 </v>
    <v>       0.44444444       0.44444444       0.10332942 </v>
    <v>       0.77777778       0.44444444       0.10332942 </v>
    <v>       0.11111111       0.77777778       0.10332942 </v>
    <v>       0.44444444       0.77777778       0.10332942 </v>
    <v>       0.77777778       0.77777778       0.10332942 </v>
    <v>       0.88901241       0.22358916       0.20687213 </v>
    <v>       0.21991860       0.22218644       0.20852840 </v>
    <v>       0.55240282       0.22181196       0.20624593 </v>
    <v>       0.89005389       0.55259094       0.20656730 </v>
    <v>       0.22004875       0.55422402       0.20624200 </v>
    <v>       0.55356059       0.55518775       0.20439117 </v>
    <v>       0.88778386       0.88942991       0.20457075 </v>
    <v>       0.22169860       0.89092981       0.20682724 </v>
    <v>       0.55067242       0.89200702       0.20650393 </v>
    <v>       0.99710842       0.00001670       0.30787463 </v>
    <v>       0.35255374       0.98200082       0.31457446 </v>
    <v>       0.67129332       0.00067947       0.30959745 </v>
    <v>       0.97821511       0.35585193       0.31498613 </v>
    <v>       0.33254333       0.33565575       0.31211451 </v>
    <v>       0.66058672       0.33500118       0.30900241 </v>
    <v>       0.99789325       0.67402275       0.30960759 </v>
    <v>       0.33204019       0.66380929       0.30895252 </v>
    <v>       0.66335443       0.66654516       0.30655996 </v>
    <v>       0.18610209       0.18906555       0.36804158 </v>
   </varray>
  </structure>
  <varray name="forces" >
   <v>      -0.00671572      -0.00455897      -0.06534539 </v>
   <v>      -0.00480993       0.01932586      -0.07034687 </v>
   <v>       0.02106687      -0.00997306      -0.08215231 </v>
   <v>       0.01384964      -0.01449817      -0.07010740 </v>
   <v>      -0.00690557      -0.00486159      -0.05380200 </v>
   <v>       0.01066301      -0.01683067      -0.04733481 </v>
   <v>       0.00240177       0.02329653      -0.08027741 </v>
   <v>      -0.00947539       0.01740039      -0.04741511 </v>
   <v>       0.01336078       0.00738377      -0.04906953 </v>
   <v>       0.02068838       0.01755527       0.11014005 </v>
   <v>      -0.00727782       0.00765172       0.08624334 </v>
   <v>      -0.01806049       0.07177696       0.06446293 </v>
   <v>      -0.00171217      -0.00517811       0.08965697 </v>
   <v>      -0.03023355      -0.01316870      -0.00762364 </v>
   <v>       0.00446122      -0.00636098      -0.00518650 </v>
   <v>       0.04963644      -0.04479890       0.06461031 </v>
   <v>      -0.00686586       0.01380791      -0.00853977 </v>
   <v>      -0.06554995      -0.03324695       0.12661839 </v>
   <v>       0.00009824      -0.00110901       0.00145883 </v>
   <v>      -0.00657515      -0.00747564       0.01819948 </v>
   <v>      -0.01347600       0.00869155       0.00612328 </v>
   <v>      -0.01157374       0.00216104      -0.00213537 </v>
   <v>       0.00177829      -0.01718229       0.00736172 </v>
   <v>      -0.00283744      -0.00285769       0.00968649 </v>
   <v>      -0.00678177      -0.00409786      -0.00015048 </v>
   <v>       0.00056069      -0.00307492       0.00125274 </v>
   <v>      -0.00099104      -0.01477999      -0.00265063 </v>
   <v>      -0.02536490      -0.01569038      -0.01536725 </v>
   <v>      -0.02232223      -0.05184602      -0.00126534 </v>
   <v>      -0.00613993      -0.00292822      -0.00538867 </v>
   <v>      -0.05210251       0.00642271      -0.00267833 </v>
   <v>      -0.03585952      -0.02324973       0.05384911 </v>
   <v>      -0.00961264      -0.00256826      -0.00614156 </v>
   <v>      -0.00485627      -0.00737448      -0.00710793 </v>
   <v>      -0.00803438      -0.01116085      -0.00384399 </v>
   <v>      -0.01822417      -0.01573513      -0.00340363 </v>
   <v>       0.24379279       0.13913287      -0.00232974 </v>
  </varray>
  <varray name="stress" >
   <v>     -17.33529709      -1.07116465       0.44744274 </v>
   <v>      -1.07116458     -16.06967587       0.14498316 </v>
   <v>       0.44744275       0.14498307       0.14553546 </v>
  </varray>
  <energy>
   <i name="e_fr_energy">   -114.80875160 </i>
   <i name="e_wo_entrp">   -114.78088087 </i>
   <i name="e_0_energy">   -114.79946135 </i>
  </energy>
  <time name="totalsc">   75.50   75.94</time>
  <eigenvalues>
   <array>
    <dimension dim="1">band</dimension>
    <dimension dim="2">kpoint</dimension>
    <dimension dim="3">spin</dimension>
    <field>eigene</field>
    <field>occ</field>
    <set>
     <set comment="spin 1">
      <set comment="kpoint 1">
       <r>  -16.9465    1.0000 </r>
       <r>   -8.2372    1.0000 </r>
       <r>   -7.0975    1.0000 </r>
       <r>   -6.8857    1.0000 </r>
       <r>   -6.4138    1.0000 </r>
       <r>   -6.3897    1.0000 </r>
       <r>   -6.1441    1.0000 </r>
       <r>   -6.1052    1.0000 </r>
       <r>   -6.0953    1.0000 </r>
       <r>   -6.0205    1.0000 </r>
       <r>   -6.0166    1.0000 </r>
       <r>   -5.9848    1.0000 </r>
       <r>   -5.8641    1.0000 </r>
       <r>   -5.8112    1.0000 </r>
       <r>   -5.7007    1.0000 </r>
       <r>   -5.6949    1.0000 </r>
       <r>   -5.6664    1.0000 </r>
       <r>   -5.5412    1.0000 </r>
       <r>   -5.4662    1.0000 </r>
       <r>   -5.4280    1.0000 </r>
       <r>   -5.4050    1.0000 </r>
       <r>   -5.3820    1.0000 </r>
       <r>   -5.3590    1.0000 </r>
       <r>   -5.3012    1.0000 </r>
       <r>   -5.2935    1.0000 </r>
       <r>   -5.2868    1.0000 </r>
       <r>   -5.2772    1.0000 </r>
       <r>   -5.2656    1.0000 </r>
       <r>   -5.2499    1.0000 </r>
       <r>   -5.2426    1.0000 </r>
       <r>   -5.2173    1.0000 </r>
       <r>   -5.1273    1.0000 </r>
       <r>   -5.0750    1.0000 </r>
       <r>   -5.0574    1.0000 </r>
       <r>   -5.0507    1.0000 </r>
       <r>   -5.0033    1.0000 </r>
       <r>   -4.9572    1.0000 </r>
       <r>   -4.9024    1.0000 </r>
       <r>   -4.8747    1.0000 </r>
       <r>   -4.8584    1.0000 </r>
       <r>   -4.8393    1.0000 </r>
       <r>   -4.8290    1.0000 </r>
       <r>   -4.7322    1.0000 </r>
       <r>   -4.6911    1.0000 </r>
       <r>   -4.6721    1.0000 </r>
       <r>   -4.6264    1.0000 </r>
       <r>   -4.6107    1.0000 </r>
       <r>   -4.5858    1.0000 </r>
       <r>   -4.4800    1.0000 </r>
       <r>   -4.4480    1.0000 </r>
       <r>   -4.4271    1.0000 </r>
       <r>   -4.4013    1.0000 </r>
       <r>   -4.3789    1.0000 </r>
       <r>   -4.3663    1.0000 </r>
       <r>   -4.3429    1.0000 </r>
       <r>   -4.2978    1.0000 </r>
       <r>   -4.2348    1.0000 </r>
       <r>   -4.1814    1.0000 </r>
       <r>   -4.1775    1.0000 </r>
       <r>   -4.1201    1.0000 </r>
       <r>   -4.0986    1.0000 </r>
       <r>   -4.0690    1.0000 </r>
       <r>   -4.0620    1.0000 </r>
       <r>   -4.0340    1.0000 </r>
       <r>   -4.0130    1.0000 </r>
       <r>   -3.9778    1.0000 </r>
       <r>   -3.9701    1.0000 </r>
       <r>   -3.9452    1.0000 </r>
       <r>   -3.9287    1.0000 </r>
       <r>   -3.9179    1.0000 </r>
       <r>   -3.8518    1.0000 </r>
       <r>   -3.8113    1.0000 </r>
       <r>   -3.8072    1.0000 </r>
       <r>   -3.7769    1.0000 </r>
       <r>   -3.7676    1.0000 </r>
       <r>   -3.7401    1.0000 </r>
       <r>   -3.7264    1.0000 </r>
       <r>   -3.7146    1.0000 </r>
       <r>   -3.6851    1.0000 </r>
       <r>   -3.6636    1.0000 </r>
       <r>   -3.6566    1.0000 </r>
       <r>   -3.6457    1.0000 </r>
       <r>   -3.6430    1.0000 </r>
       <r>   -3.6291    1.0000 </r>
       <r>   -3.6133    1.0000 </r>
       <r>   -3.5862    1.0000 </r>
       <r>   -3.5730    1.0000 </r>
       <r>   -3.5445    1.0000 </r>
       <r>   -3.5330    1.0000 </r>
       <r>   -3.5177    1.0000 </r>
       <r>   -3.4970    1.0000 </r>
       <r>   -3.4937    1.0000 </r>
       <r>   -3.4538    1.0000 </r>
       <r>   -3.4426    1.0000 </r>
       <r>   -3.4094    1.0000 </r>
       <r>   -3.3847    1.0000 </r>
       <r>   -3.3695    1.0000 </r>
       <r>   -3.3585    1.0000 </r>
       <r>   -3.3578    1.0000 </r>
       <r>   -3.3095    1.0000 </r>
       <r>   -3.2787    1.0000 </r>
       <r>   -3.2702    1.0000 </r>
       <r>   -3.2373    1.0000 </r>
       <r>   -3.2225    1.0000 </r>
       <r>   -3.1963    1.0000 </r>
       <r>   -3.1875    1.0000 </r>
       <r>   -3.1612    1.0000 </r>
       <r>   -3.1386    1.0000 </r>
       <r>   -3.1232    1.0000 </r>
       <r>   -3.1019    1.0000 </r>
       <r>   -3.0534    1.0000 </r>
       <r>   -3.0264    1.0000 </r>
       <r>   -2.9815    1.0000 </r>
       <r>   -2.9798    1.0000 </r>
       <r>   -2.9637    1.0000 </r>
       <r>   -2.8704    1.0000 </r>
       <r>   -2.8474    1.0000 </r>
       <r>   -2.8425    1.0000 </r>
       <r>   -2.8278    1.0000 </r>
       <r>   -2.8120    1.0000 </r>
       <r>   -2.8053    1.0000 </r>
       <r>   -2.7880    1.0000 </r>
       <r>   -2.7841    1.0000 </r>
       <r>   -2.7419    1.0000 </r>
       <r>   -2.6798    1.0000 </r>
       <r>   -2.6705    1.0000 </r>
       <r>   -2.6640    1.0000 </r>
       <r>   -2.6205    1.0000 </r>
       <r>   -2.6086    1.0000 </r>
       <r>   -2.6024    1.0000 </r>
       <r>   -2.5606    1.0000 </r>
       <r>   -2.5009    1.0000 </r>
       <r>   -2.4641    1.0000 </r>
       <r>   -2.4378    1.0000 </r>
       <r>   -2.4238    1.0000 </r>
       <r>   -2.4084    1.0000 </r>
       <r>   -2.3776    1.0000 </r>
       <r>   -2.3541    1.0000 </r>
       <r>   -2.3384    1.0000 </r>
       <r>   -2.3329    1.0000 </r>
       <r>   -2.2712    1.0000 </r>
       <r>   -2.2585    1.0000 </r>
       <r>   -2.2424    1.0000 </r>
       <r>   -2.2240    1.0000 </r>
       <r>   -2.2133    1.0000 </r>
       <r>   -2.1518    1.0000 </r>
       <r>   -2.1416    1.0000 </r>
       <r>   -2.1123    1.0000 </r>
       <r>   -2.0928    1.0000 </r>
       <r>   -2.0783    1.0000 </r>
       <r>   -2.0631    1.0000 </r>
       <r>   -2.0489    1.0000 </r>
       <r>   -2.0247    1.0000 </r>
       <r>   -2.0171    1.0000 </r>
       <r>   -2.0041    1.0000 </r>
       <r>   -1.9873    1.0000 </r>
       <r>   -1.9728    1.0000 </r>
       <r>   -1.9637    1.0000 </r>
       <r>   -1.9313    1.0000 </r>
       <r>   -1.9247    1.0000 </r>
       <r>   -1.8376    1.0000 </r>
       <r>   -1.8223    1.0000 </r>
       <r>   -1.8056    1.0000 </r>
       <r>   -1.7536    1.0000 </r>
       <r>   -1.7521    1.0000 </r>
       <r>   -1.7087    1.0000 </r>
       <r>   -1.7024    1.0000 </r>
       <r>   -1.6851    1.0000 </r>
       <r>   -1.6754    1.0000 </r>
       <r>   -1.6601    1.0000 </r>
       <r>   -1.6555    1.0000 </r>
       <r>   -1.6468    1.0000 </r>
       <r>   -1.6380    1.0000 </r>
       <r>   -1.6002    1.0000 </r>
       <r>   -1.5853    1.0000 </r>
       <r>   -1.5809    1.0000 </r>
       <r>   -1.5686    1.0000 </r>
       <r>   -1.5628    1.0000 </r>
       <r>   -1.5476    1.0000 </r>
       <r>   -1.5297    1.0000 </r>
       <r>   -1.5075    1.0000 </r>
       <r>   -1.5060    1.0000 </r>
       <r>   -1.4587    1.0000 </r>
       <r>   -1.4284    1.0000 </r>
       <r>   -1.4241    1.0000 </r>
       <r>   -1.4006    1.0000 </r>
       <r>   -1.3745    1.0000 </r>
       <r>   -1.3661    1.0000 </r>
       <r>   -1.2638    1.0000 </r>
       <r>   -1.2194    1.0000 </r>
       <r>   -1.0787    1.0000 </r>
       <r>   -0.9594    1.0000 </r>
       <r>   -0.9299    1.0000 </r>
       <r>   -0.8626    1.0000 </r>
       <r>   -0.7134    1.0000 </r>
       <r>   -0.6511    1.0000 </r>
       <r>   -0.5990    1.0000 </r>
       <r>   -0.5721    1.0000 </r>
       <r>   -0.4152    1.0000 </r>
       <r>   -0.2287    1.0000 </r>
       <r>    0.0636    1.0000 </r>
       <r>    0.0876    1.0000 </r>
       <r>    0.4408    0.4200 </r>
       <r>    0.7860   -0.0000 </r>
       <r>    0.9421   -0.0000 </r>
       <r>    1.2453   -0.0000 </r>
       <r>    1.3402   -0.0000 </r>
       <r>    1.5977   -0.0000 </r>
       <r>    1.7783   -0.0000 </r>
       <r>    1.7808   -0.0000 </r>
       <r>    1.9021   -0.0000 </r>
       <r>    2.0949   -0.0000 </r>
       <r>    2.6917    0.0000 </r>
       <r>    2.8524    0.0000 </r>
       <r>    2.8890    0.0000 </r>
       <r>    3.0499    0.0000 </r>
       <r>    3.4591    0.0000 </r>
       <r>    3.5214    0.0000 </r>
       <r>    3.5603    0.0000 </r>
       <r>    3.9240    0.0000 </r>
       <r>    4.0232    0.0000 </r>
       <r>    4.0488    0.0000 </r>
       <r>    4.3166    0.0000 </r>
       <r>    4.5060    0.0000 </r>
       <r>    4.5186    0.0000 </r>
       <r>    4.8497    0.0000 </r>
       <r>    4.8559    0.0000 </r>
       <r>    5.0364    0.0000 </r>
       <r>    5.1682    0.0000 </r>
       <r>    5.1930    0.0000 </r>
       <r>    5.2807    0.0000 </r>
       <r>    5.5158    0.0000 </r>
       <r>    5.5642    0.0000 </r>
       <r>    5.7128    0.0000 </r>
       <r>    5.8264    0.0000 </r>
       <r>    5.9456    0.0000 </r>
       <r>    6.0285    0.0000 </r>
       <r>    6.1430    0.0000 </r>
       <r>    6.1916    0.0000 </r>
       <r>    6.6304    0.0000 </r>
       <r>    6.7555    0.0000 </r>
       <r>    6.8022    0.0000 </r>
      </set>
      <set comment="kpoint 2">
       <r>  -16.9463    1.0000 </r>
       <r>   -8.2383    1.0000 </r>
       <r>   -7.1044    1.0000 </r>
       <r>   -6.8901    1.0000 </r>
       <r>   -6.4101    1.0000 </r>
       <r>   -6.3883    1.0000 </r>
       <r>   -6.1639    1.0000 </r>
       <r>   -6.1124    1.0000 </r>
       <r>   -6.0987    1.0000 </r>
       <r>   -6.0237    1.0000 </r>
       <r>   -6.0108    1.0000 </r>
       <r>   -5.9805    1.0000 </r>
       <r>   -5.8658    1.0000 </r>
       <r>   -5.7806    1.0000 </r>
       <r>   -5.7096    1.0000 </r>
       <r>   -5.6870    1.0000 </r>
       <r>   -5.6667    1.0000 </r>
       <r>   -5.5455    1.0000 </r>
       <r>   -5.4570    1.0000 </r>
       <r>   -5.4264    1.0000 </r>
       <r>   -5.4034    1.0000 </r>
       <r>   -5.3948    1.0000 </r>
       <r>   -5.3535    1.0000 </r>
       <r>   -5.3133    1.0000 </r>
       <r>   -5.2982    1.0000 </r>
       <r>   -5.2819    1.0000 </r>
       <r>   -5.2737    1.0000 </r>
       <r>   -5.2594    1.0000 </r>
       <r>   -5.2533    1.0000 </r>
       <r>   -5.2292    1.0000 </r>
       <r>   -5.2134    1.0000 </r>
       <r>   -5.1283    1.0000 </r>
       <r>   -5.0831    1.0000 </r>
       <r>   -5.0545    1.0000 </r>
       <r>   -5.0286    1.0000 </r>
       <r>   -5.0115    1.0000 </r>
       <r>   -4.9317    1.0000 </r>
       <r>   -4.9179    1.0000 </r>
       <r>   -4.8844    1.0000 </r>
       <r>   -4.8585    1.0000 </r>
       <r>   -4.8326    1.0000 </r>
       <r>   -4.7943    1.0000 </r>
       <r>   -4.7294    1.0000 </r>
       <r>   -4.7101    1.0000 </r>
       <r>   -4.6842    1.0000 </r>
       <r>   -4.6377    1.0000 </r>
       <r>   -4.6087    1.0000 </r>
       <r>   -4.5751    1.0000 </r>
       <r>   -4.5442    1.0000 </r>
       <r>   -4.4580    1.0000 </r>
       <r>   -4.4445    1.0000 </r>
       <r>   -4.4148    1.0000 </r>
       <r>   -4.3843    1.0000 </r>
       <r>   -4.3516    1.0000 </r>
       <r>   -4.3406    1.0000 </r>
       <r>   -4.2558    1.0000 </r>
       <r>   -4.2248    1.0000 </r>
       <r>   -4.1918    1.0000 </r>
       <r>   -4.1734    1.0000 </r>
       <r>   -4.1222    1.0000 </r>
       <r>   -4.0940    1.0000 </r>
       <r>   -4.0828    1.0000 </r>
       <r>   -4.0514    1.0000 </r>
       <r>   -4.0247    1.0000 </r>
       <r>   -4.0059    1.0000 </r>
       <r>   -3.9858    1.0000 </r>
       <r>   -3.9704    1.0000 </r>
       <r>   -3.9607    1.0000 </r>
       <r>   -3.9390    1.0000 </r>
       <r>   -3.8934    1.0000 </r>
       <r>   -3.8305    1.0000 </r>
       <r>   -3.8228    1.0000 </r>
       <r>   -3.8061    1.0000 </r>
       <r>   -3.7859    1.0000 </r>
       <r>   -3.7796    1.0000 </r>
       <r>   -3.7653    1.0000 </r>
       <r>   -3.7204    1.0000 </r>
       <r>   -3.6991    1.0000 </r>
       <r>   -3.6876    1.0000 </r>
       <r>   -3.6816    1.0000 </r>
       <r>   -3.6632    1.0000 </r>
       <r>   -3.6567    1.0000 </r>
       <r>   -3.6476    1.0000 </r>
       <r>   -3.6304    1.0000 </r>
       <r>   -3.5971    1.0000 </r>
       <r>   -3.5920    1.0000 </r>
       <r>   -3.5692    1.0000 </r>
       <r>   -3.5476    1.0000 </r>
       <r>   -3.5334    1.0000 </r>
       <r>   -3.5146    1.0000 </r>
       <r>   -3.5047    1.0000 </r>
       <r>   -3.4812    1.0000 </r>
       <r>   -3.4637    1.0000 </r>
       <r>   -3.4475    1.0000 </r>
       <r>   -3.4200    1.0000 </r>
       <r>   -3.4074    1.0000 </r>
       <r>   -3.3930    1.0000 </r>
       <r>   -3.3675    1.0000 </r>
       <r>   -3.3464    1.0000 </r>
       <r>   -3.3311    1.0000 </r>
       <r>   -3.2989    1.0000 </r>
       <r>   -3.2628    1.0000 </r>
       <r>   -3.2262    1.0000 </r>
       <r>   -3.2016    1.0000 </r>
       <r>   -3.1858    1.0000 </r>
       <r>   -3.1796    1.0000 </r>
       <r>   -3.1522    1.0000 </r>
       <r>   -3.1353    1.0000 </r>
       <r>   -3.1199    1.0000 </r>
       <r>   -3.1044    1.0000 </r>
       <r>   -3.0590    1.0000 </r>
       <r>   -3.0165    1.0000 </r>
       <r>   -2.9875    1.0000 </r>
       <r>   -2.9654    1.0000 </r>
       <r>   -2.9468    1.0000 </r>
       <r>   -2.9077    1.0000 </r>
       <r>   -2.8492    1.0000 </r>
       <r>   -2.8349    1.0000 </r>
       <r>   -2.8225    1.0000 </r>
       <r>   -2.8154    1.0000 </r>
       <r>   -2.7991    1.0000 </r>
       <r>   -2.7819    1.0000 </r>
       <r>   -2.7776    1.0000 </r>
       <r>   -2.7293    1.0000 </r>
       <r>   -2.6711    1.0000 </r>
       <r>   -2.6622    1.0000 </r>
       <r>   -2.6527    1.0000 </r>
       <r>   -2.6156    1.0000 </r>
       <r>   -2.6061    1.0000 </r>
       <r>   -2.5866    1.0000 </r>
       <r>   -2.5660    1.0000 </r>
       <r>   -2.5155    1.0000 </r>
       <r>   -2.4490    1.0000 </r>
       <r>   -2.4387    1.0000 </r>
       <r>   -2.4230    1.0000 </r>
       <r>   -2.3958    1.0000 </r>
       <r>   -2.3737    1.0000 </r>
       <r>   -2.3521    1.0000 </r>
       <r>   -2.3369    1.0000 </r>
       <r>   -2.3170    1.0000 </r>
       <r>   -2.2744    1.0000 </r>
       <r>   -2.2580    1.0000 </r>
       <r>   -2.2351    1.0000 </r>
       <r>   -2.2108    1.0000 </r>
       <r>   -2.1787    1.0000 </r>
       <r>   -2.1567    1.0000 </r>
       <r>   -2.1383    1.0000 </r>
       <r>   -2.1102    1.0000 </r>
       <r>   -2.0996    1.0000 </r>
       <r>   -2.0648    1.0000 </r>
       <r>   -2.0437    1.0000 </r>
       <r>   -2.0413    1.0000 </r>
       <r>   -2.0242    1.0000 </r>
       <r>   -2.0158    1.0000 </r>
       <r>   -2.0038    1.0000 </r>
       <r>   -1.9883    1.0000 </r>
       <r>   -1.9696    1.0000 </r>
       <r>   -1.9489    1.0000 </r>
       <r>   -1.9106    1.0000 </r>
       <r>   -1.8696    1.0000 </r>
       <r>   -1.8446    1.0000 </r>
       <r>   -1.8264    1.0000 </r>
       <r>   -1.8049    1.0000 </r>
       <r>   -1.7399    1.0000 </r>
       <r>   -1.7154    1.0000 </r>
       <r>   -1.7115    1.0000 </r>
       <r>   -1.7005    1.0000 </r>
       <r>   -1.6798    1.0000 </r>
       <r>   -1.6746    1.0000 </r>
       <r>   -1.6623    1.0000 </r>
       <r>   -1.6553    1.0000 </r>
       <r>   -1.6405    1.0000 </r>
       <r>   -1.6377    1.0000 </r>
       <r>   -1.6029    1.0000 </r>
       <r>   -1.5865    1.0000 </r>
       <r>   -1.5826    1.0000 </r>
       <r>   -1.5708    1.0000 </r>
       <r>   -1.5621    1.0000 </r>
       <r>   -1.5470    1.0000 </r>
       <r>   -1.5336    1.0000 </r>
       <r>   -1.5172    1.0000 </r>
       <r>   -1.4991    1.0000 </r>
       <r>   -1.4566    1.0000 </r>
       <r>   -1.4271    1.0000 </r>
       <r>   -1.4139    1.0000 </r>
       <r>   -1.4092    1.0000 </r>
       <r>   -1.3748    1.0000 </r>
       <r>   -1.3627    1.0000 </r>
       <r>   -1.3103    1.0000 </r>
       <r>   -1.2361    1.0000 </r>
       <r>   -1.0802    1.0000 </r>
       <r>   -0.9656    1.0000 </r>
       <r>   -0.9396    1.0000 </r>
       <r>   -0.9127    1.0000 </r>
       <r>   -0.7919    1.0000 </r>
       <r>   -0.7392    1.0000 </r>
       <r>   -0.5332    1.0000 </r>
       <r>   -0.4614    1.0000 </r>
       <r>   -0.4201    1.0000 </r>
       <r>   -0.2699    1.0000 </r>
       <r>   -0.0438    1.0000 </r>
       <r>    0.0555    1.0000 </r>
       <r>    0.4126    0.6549 </r>
       <r>    0.8374   -0.0000 </r>
       <r>    0.8893   -0.0000 </r>
       <r>    1.2826   -0.0000 </r>
       <r>    1.3314   -0.0000 </r>
       <r>    1.5822   -0.0000 </r>
       <r>    1.7498   -0.0000 </r>
       <r>    1.8051   -0.0000 </r>
       <r>    1.8883   -0.0000 </r>
       <r>    2.1327   -0.0000 </r>
       <r>    2.6932    0.0000 </r>
       <r>    2.8408    0.0000 </r>
       <r>    2.9111    0.0000 </r>
       <r>    3.0126    0.0000 </r>
       <r>    3.3860    0.0000 </r>
       <r>    3.5144    0.0000 </r>
       <r>    3.6565    0.0000 </r>
       <r>    3.9170    0.0000 </r>
       <r>    4.0463    0.0000 </r>
       <r>    4.0646    0.0000 </r>
       <r>    4.2425    0.0000 </r>
       <r>    4.4874    0.0000 </r>
       <r>    4.5710    0.0000 </r>
       <r>    4.8120    0.0000 </r>
       <r>    4.8707    0.0000 </r>
       <r>    5.0949    0.0000 </r>
       <r>    5.1695    0.0000 </r>
       <r>    5.2118    0.0000 </r>
       <r>    5.2695    0.0000 </r>
       <r>    5.5298    0.0000 </r>
       <r>    5.6265    0.0000 </r>
       <r>    5.7191    0.0000 </r>
       <r>    5.8552    0.0000 </r>
       <r>    5.9075    0.0000 </r>
       <r>    6.0273    0.0000 </r>
       <r>    6.1539    0.0000 </r>
       <r>    6.5055    0.0000 </r>
       <r>    6.6627    0.0000 </r>
       <r>    6.7854    0.0000 </r>
       <r>    6.8711    0.0000 </r>
      </set>
      <set comment="kpoint 3">
       <r>  -16.9463    1.0000 </r>
       <r>   -8.2384    1.0000 </r>
       <r>   -7.1045    1.0000 </r>
       <r>   -6.8919    1.0000 </r>
       <r>   -6.4074    1.0000 </r>
       <r>   -6.3882    1.0000 </r>
       <r>   -6.1639    1.0000 </r>
       <r>   -6.1126    1.0000 </r>
       <r>   -6.1032    1.0000 </r>
       <r>   -6.0221    1.0000 </r>
       <r>   -6.0078    1.0000 </r>
       <r>   -5.9798    1.0000 </r>
       <r>   -5.8644    1.0000 </r>
       <r>   -5.7816    1.0000 </r>
       <r>   -5.7112    1.0000 </r>
       <r>   -5.6876    1.0000 </r>
       <r>   -5.6688    1.0000 </r>
       <r>   -5.5446    1.0000 </r>
       <r>   -5.4578    1.0000 </r>
       <r>   -5.4266    1.0000 </r>
       <r>   -5.4030    1.0000 </r>
       <r>   -5.3950    1.0000 </r>
       <r>   -5.3529    1.0000 </r>
       <r>   -5.3149    1.0000 </r>
       <r>   -5.2970    1.0000 </r>
       <r>   -5.2814    1.0000 </r>
       <r>   -5.2736    1.0000 </r>
       <r>   -5.2590    1.0000 </r>
       <r>   -5.2531    1.0000 </r>
       <r>   -5.2289    1.0000 </r>
       <r>   -5.2121    1.0000 </r>
       <r>   -5.1308    1.0000 </r>
       <r>   -5.0830    1.0000 </r>
       <r>   -5.0541    1.0000 </r>
       <r>   -5.0290    1.0000 </r>
       <r>   -5.0119    1.0000 </r>
       <r>   -4.9331    1.0000 </r>
       <r>   -4.9166    1.0000 </r>
       <r>   -4.8844    1.0000 </r>
       <r>   -4.8583    1.0000 </r>
       <r>   -4.8311    1.0000 </r>
       <r>   -4.7919    1.0000 </r>
       <r>   -4.7275    1.0000 </r>
       <r>   -4.7094    1.0000 </r>
       <r>   -4.6842    1.0000 </r>
       <r>   -4.6384    1.0000 </r>
       <r>   -4.6091    1.0000 </r>
       <r>   -4.5760    1.0000 </r>
       <r>   -4.5446    1.0000 </r>
       <r>   -4.4572    1.0000 </r>
       <r>   -4.4432    1.0000 </r>
       <r>   -4.4137    1.0000 </r>
       <r>   -4.3842    1.0000 </r>
       <r>   -4.3537    1.0000 </r>
       <r>   -4.3407    1.0000 </r>
       <r>   -4.2551    1.0000 </r>
       <r>   -4.2223    1.0000 </r>
       <r>   -4.1917    1.0000 </r>
       <r>   -4.1750    1.0000 </r>
       <r>   -4.1182    1.0000 </r>
       <r>   -4.0895    1.0000 </r>
       <r>   -4.0781    1.0000 </r>
       <r>   -4.0485    1.0000 </r>
       <r>   -4.0269    1.0000 </r>
       <r>   -4.0061    1.0000 </r>
       <r>   -3.9887    1.0000 </r>
       <r>   -3.9720    1.0000 </r>
       <r>   -3.9610    1.0000 </r>
       <r>   -3.9391    1.0000 </r>
       <r>   -3.8915    1.0000 </r>
       <r>   -3.8412    1.0000 </r>
       <r>   -3.8262    1.0000 </r>
       <r>   -3.8110    1.0000 </r>
       <r>   -3.7862    1.0000 </r>
       <r>   -3.7801    1.0000 </r>
       <r>   -3.7650    1.0000 </r>
       <r>   -3.7205    1.0000 </r>
       <r>   -3.6971    1.0000 </r>
       <r>   -3.6874    1.0000 </r>
       <r>   -3.6811    1.0000 </r>
       <r>   -3.6584    1.0000 </r>
       <r>   -3.6535    1.0000 </r>
       <r>   -3.6461    1.0000 </r>
       <r>   -3.6292    1.0000 </r>
       <r>   -3.5955    1.0000 </r>
       <r>   -3.5902    1.0000 </r>
       <r>   -3.5691    1.0000 </r>
       <r>   -3.5481    1.0000 </r>
       <r>   -3.5335    1.0000 </r>
       <r>   -3.5143    1.0000 </r>
       <r>   -3.5075    1.0000 </r>
       <r>   -3.4803    1.0000 </r>
       <r>   -3.4651    1.0000 </r>
       <r>   -3.4508    1.0000 </r>
       <r>   -3.4193    1.0000 </r>
       <r>   -3.4090    1.0000 </r>
       <r>   -3.3945    1.0000 </r>
       <r>   -3.3686    1.0000 </r>
       <r>   -3.3463    1.0000 </r>
       <r>   -3.3323    1.0000 </r>
       <r>   -3.3006    1.0000 </r>
       <r>   -3.2638    1.0000 </r>
       <r>   -3.2240    1.0000 </r>
       <r>   -3.2018    1.0000 </r>
       <r>   -3.1871    1.0000 </r>
       <r>   -3.1807    1.0000 </r>
       <r>   -3.1538    1.0000 </r>
       <r>   -3.1350    1.0000 </r>
       <r>   -3.1185    1.0000 </r>
       <r>   -3.1043    1.0000 </r>
       <r>   -3.0580    1.0000 </r>
       <r>   -3.0161    1.0000 </r>
       <r>   -2.9874    1.0000 </r>
       <r>   -2.9633    1.0000 </r>
       <r>   -2.9461    1.0000 </r>
       <r>   -2.9083    1.0000 </r>
       <r>   -2.8519    1.0000 </r>
       <r>   -2.8362    1.0000 </r>
       <r>   -2.8242    1.0000 </r>
       <r>   -2.8162    1.0000 </r>
       <r>   -2.7989    1.0000 </r>
       <r>   -2.7832    1.0000 </r>
       <r>   -2.7772    1.0000 </r>
       <r>   -2.7287    1.0000 </r>
       <r>   -2.6726    1.0000 </r>
       <r>   -2.6636    1.0000 </r>
       <r>   -2.6551    1.0000 </r>
       <r>   -2.6172    1.0000 </r>
       <r>   -2.6047    1.0000 </r>
       <r>   -2.5870    1.0000 </r>
       <r>   -2.5646    1.0000 </r>
       <r>   -2.5161    1.0000 </r>
       <r>   -2.4497    1.0000 </r>
       <r>   -2.4400    1.0000 </r>
       <r>   -2.4242    1.0000 </r>
       <r>   -2.3968    1.0000 </r>
       <r>   -2.3736    1.0000 </r>
       <r>   -2.3521    1.0000 </r>
       <r>   -2.3340    1.0000 </r>
       <r>   -2.3166    1.0000 </r>
       <r>   -2.2755    1.0000 </r>
       <r>   -2.2577    1.0000 </r>
       <r>   -2.2343    1.0000 </r>
       <r>   -2.2094    1.0000 </r>
       <r>   -2.1789    1.0000 </r>
       <r>   -2.1554    1.0000 </r>
       <r>   -2.1383    1.0000 </r>
       <r>   -2.1096    1.0000 </r>
       <r>   -2.0988    1.0000 </r>
       <r>   -2.0629    1.0000 </r>
       <r>   -2.0441    1.0000 </r>
       <r>   -2.0402    1.0000 </r>
       <r>   -2.0245    1.0000 </r>
       <r>   -2.0144    1.0000 </r>
       <r>   -2.0029    1.0000 </r>
       <r>   -1.9870    1.0000 </r>
       <r>   -1.9685    1.0000 </r>
       <r>   -1.9485    1.0000 </r>
       <r>   -1.9105    1.0000 </r>
       <r>   -1.8701    1.0000 </r>
       <r>   -1.8455    1.0000 </r>
       <r>   -1.8268    1.0000 </r>
       <r>   -1.8049    1.0000 </r>
       <r>   -1.7396    1.0000 </r>
       <r>   -1.7155    1.0000 </r>
       <r>   -1.7115    1.0000 </r>
       <r>   -1.7001    1.0000 </r>
       <r>   -1.6797    1.0000 </r>
       <r>   -1.6751    1.0000 </r>
       <r>   -1.6634    1.0000 </r>
       <r>   -1.6561    1.0000 </r>
       <r>   -1.6425    1.0000 </r>
       <r>   -1.6379    1.0000 </r>
       <r>   -1.6028    1.0000 </r>
       <r>   -1.5887    1.0000 </r>
       <r>   -1.5848    1.0000 </r>
       <r>   -1.5718    1.0000 </r>
       <r>   -1.5634    1.0000 </r>
       <r>   -1.5484    1.0000 </r>
       <r>   -1.5364    1.0000 </r>
       <r>   -1.5194    1.0000 </r>
       <r>   -1.4971    1.0000 </r>
       <r>   -1.4543    1.0000 </r>
       <r>   -1.4259    1.0000 </r>
       <r>   -1.4110    1.0000 </r>
       <r>   -1.4076    1.0000 </r>
       <r>   -1.3707    1.0000 </r>
       <r>   -1.3597    1.0000 </r>
       <r>   -1.3081    1.0000 </r>
       <r>   -1.2356    1.0000 </r>
       <r>   -1.0822    1.0000 </r>
       <r>   -0.9671    1.0000 </r>
       <r>   -0.9431    1.0000 </r>
       <r>   -0.9143    1.0000 </r>
       <r>   -0.7925    1.0000 </r>
       <r>   -0.7409    1.0000 </r>
       <r>   -0.5300    1.0000 </r>
       <r>   -0.4573    1.0000 </r>
       <r>   -0.4171    1.0000 </r>
       <r>   -0.2688    1.0000 </r>
       <r>   -0.0442    1.0000 </r>
       <r>    0.0569    1.0000 </r>
       <r>    0.4109    0.6686 </r>
       <r>    0.8373   -0.0000 </r>
       <r>    0.8896   -0.0000 </r>
       <r>    1.2806   -0.0000 </r>
       <r>    1.3298   -0.0000 </r>
       <r>    1.5835   -0.0000 </r>
       <r>    1.7509   -0.0000 </r>
       <r>    1.8047   -0.0000 </r>
       <r>    1.8892   -0.0000 </r>
       <r>    2.1324   -0.0000 </r>
       <r>    2.6934    0.0000 </r>
       <r>    2.8401    0.0000 </r>
       <r>    2.9120    0.0000 </r>
       <r>    3.0129    0.0000 </r>
       <r>    3.3881    0.0000 </r>
       <r>    3.5164    0.0000 </r>
       <r>    3.6582    0.0000 </r>
       <r>    3.9104    0.0000 </r>
       <r>    4.0432    0.0000 </r>
       <r>    4.0612    0.0000 </r>
       <r>    4.2375    0.0000 </r>
       <r>    4.4913    0.0000 </r>
       <r>    4.5769    0.0000 </r>
       <r>    4.8167    0.0000 </r>
       <r>    4.8732    0.0000 </r>
       <r>    5.0927    0.0000 </r>
       <r>    5.1699    0.0000 </r>
       <r>    5.2135    0.0000 </r>
       <r>    5.2704    0.0000 </r>
       <r>    5.5325    0.0000 </r>
       <r>    5.6266    0.0000 </r>
       <r>    5.7202    0.0000 </r>
       <r>    5.8535    0.0000 </r>
       <r>    5.9007    0.0000 </r>
       <r>    6.0705    0.0000 </r>
       <r>    6.1606    0.0000 </r>
       <r>    6.2326    0.0000 </r>
       <r>    6.6610    0.0000 </r>
       <r>    6.7690    0.0000 </r>
       <r>    6.8151    0.0000 </r>
      </set>
      <set comment="kpoint 4">
       <r>  -16.9460    1.0000 </r>
       <r>   -7.8546    1.0000 </r>
       <r>   -7.1709    1.0000 </r>
       <r>   -7.1448    1.0000 </r>
       <r>   -6.7450    1.0000 </r>
       <r>   -6.1865    1.0000 </r>
       <r>   -6.1463    1.0000 </r>
       <r>   -5.9709    1.0000 </r>
       <r>   -5.9587    1.0000 </r>
       <r>   -5.8179    1.0000 </r>
       <r>   -5.7995    1.0000 </r>
       <r>   -5.7926    1.0000 </r>
       <r>   -5.7854    1.0000 </r>
       <r>   -5.7749    1.0000 </r>
       <r>   -5.7673    1.0000 </r>
       <r>   -5.6377    1.0000 </r>
       <r>   -5.5698    1.0000 </r>
       <r>   -5.5399    1.0000 </r>
       <r>   -5.5240    1.0000 </r>
       <r>   -5.4756    1.0000 </r>
       <r>   -5.4293    1.0000 </r>
       <r>   -5.3811    1.0000 </r>
       <r>   -5.3568    1.0000 </r>
       <r>   -5.3446    1.0000 </r>
       <r>   -5.3303    1.0000 </r>
       <r>   -5.3129    1.0000 </r>
       <r>   -5.2934    1.0000 </r>
       <r>   -5.2812    1.0000 </r>
       <r>   -5.2381    1.0000 </r>
       <r>   -5.2209    1.0000 </r>
       <r>   -5.1981    1.0000 </r>
       <r>   -5.1534    1.0000 </r>
       <r>   -5.1026    1.0000 </r>
       <r>   -5.0939    1.0000 </r>
       <r>   -5.0243    1.0000 </r>
       <r>   -5.0090    1.0000 </r>
       <r>   -4.9860    1.0000 </r>
       <r>   -4.9260    1.0000 </r>
       <r>   -4.8674    1.0000 </r>
       <r>   -4.7531    1.0000 </r>
       <r>   -4.7258    1.0000 </r>
       <r>   -4.6987    1.0000 </r>
       <r>   -4.6701    1.0000 </r>
       <r>   -4.6441    1.0000 </r>
       <r>   -4.6178    1.0000 </r>
       <r>   -4.6071    1.0000 </r>
       <r>   -4.5958    1.0000 </r>
       <r>   -4.5781    1.0000 </r>
       <r>   -4.5491    1.0000 </r>
       <r>   -4.5085    1.0000 </r>
       <r>   -4.4708    1.0000 </r>
       <r>   -4.4221    1.0000 </r>
       <r>   -4.4052    1.0000 </r>
       <r>   -4.3833    1.0000 </r>
       <r>   -4.3442    1.0000 </r>
       <r>   -4.3362    1.0000 </r>
       <r>   -4.3279    1.0000 </r>
       <r>   -4.2930    1.0000 </r>
       <r>   -4.2846    1.0000 </r>
       <r>   -4.2557    1.0000 </r>
       <r>   -4.2008    1.0000 </r>
       <r>   -4.1750    1.0000 </r>
       <r>   -4.1512    1.0000 </r>
       <r>   -4.1258    1.0000 </r>
       <r>   -4.1113    1.0000 </r>
       <r>   -4.0928    1.0000 </r>
       <r>   -4.0895    1.0000 </r>
       <r>   -4.0686    1.0000 </r>
       <r>   -4.0145    1.0000 </r>
       <r>   -3.9579    1.0000 </r>
       <r>   -3.9387    1.0000 </r>
       <r>   -3.8991    1.0000 </r>
       <r>   -3.8848    1.0000 </r>
       <r>   -3.8697    1.0000 </r>
       <r>   -3.8489    1.0000 </r>
       <r>   -3.8441    1.0000 </r>
       <r>   -3.8079    1.0000 </r>
       <r>   -3.8002    1.0000 </r>
       <r>   -3.7470    1.0000 </r>
       <r>   -3.7342    1.0000 </r>
       <r>   -3.6938    1.0000 </r>
       <r>   -3.6806    1.0000 </r>
       <r>   -3.6609    1.0000 </r>
       <r>   -3.6562    1.0000 </r>
       <r>   -3.6437    1.0000 </r>
       <r>   -3.6015    1.0000 </r>
       <r>   -3.5689    1.0000 </r>
       <r>   -3.5656    1.0000 </r>
       <r>   -3.5294    1.0000 </r>
       <r>   -3.5090    1.0000 </r>
       <r>   -3.5014    1.0000 </r>
       <r>   -3.4978    1.0000 </r>
       <r>   -3.4843    1.0000 </r>
       <r>   -3.4447    1.0000 </r>
       <r>   -3.4432    1.0000 </r>
       <r>   -3.4289    1.0000 </r>
       <r>   -3.4184    1.0000 </r>
       <r>   -3.4001    1.0000 </r>
       <r>   -3.3869    1.0000 </r>
       <r>   -3.3702    1.0000 </r>
       <r>   -3.3617    1.0000 </r>
       <r>   -3.3362    1.0000 </r>
       <r>   -3.3284    1.0000 </r>
       <r>   -3.3108    1.0000 </r>
       <r>   -3.2495    1.0000 </r>
       <r>   -3.2201    1.0000 </r>
       <r>   -3.2112    1.0000 </r>
       <r>   -3.2014    1.0000 </r>
       <r>   -3.1602    1.0000 </r>
       <r>   -3.1277    1.0000 </r>
       <r>   -3.1150    1.0000 </r>
       <r>   -3.1114    1.0000 </r>
       <r>   -3.0946    1.0000 </r>
       <r>   -3.0840    1.0000 </r>
       <r>   -3.0580    1.0000 </r>
       <r>   -2.9613    1.0000 </r>
       <r>   -2.9464    1.0000 </r>
       <r>   -2.8935    1.0000 </r>
       <r>   -2.8733    1.0000 </r>
       <r>   -2.8639    1.0000 </r>
       <r>   -2.8396    1.0000 </r>
       <r>   -2.8189    1.0000 </r>
       <r>   -2.7976    1.0000 </r>
       <r>   -2.7744    1.0000 </r>
       <r>   -2.7530    1.0000 </r>
       <r>   -2.7107    1.0000 </r>
       <r>   -2.6575    1.0000 </r>
       <r>   -2.6535    1.0000 </r>
       <r>   -2.6285    1.0000 </r>
       <r>   -2.6143    1.0000 </r>
       <r>   -2.5557    1.0000 </r>
       <r>   -2.5472    1.0000 </r>
       <r>   -2.5291    1.0000 </r>
       <r>   -2.5120    1.0000 </r>
       <r>   -2.4860    1.0000 </r>
       <r>   -2.4435    1.0000 </r>
       <r>   -2.4378    1.0000 </r>
       <r>   -2.4141    1.0000 </r>
       <r>   -2.3761    1.0000 </r>
       <r>   -2.3441    1.0000 </r>
       <r>   -2.3086    1.0000 </r>
       <r>   -2.2953    1.0000 </r>
       <r>   -2.2480    1.0000 </r>
       <r>   -2.2215    1.0000 </r>
       <r>   -2.2154    1.0000 </r>
[...]
       <r>    5.9993    0.0000 </r>
       <r>    6.0701    0.0000 </r>
       <r>    6.1242    0.0000 </r>
       <r>    6.6138    0.0000 </r>
       <r>    6.6946    0.0000 </r>
      </set>
     </set>
    </set>
   </array>
  </eigenvalues>
  <separator name="orbital magnetization" >
   <v name="MAGDIPOLOUT">      0.00000000      0.00000000      0.00000000</v>
  </separator>
  <dos>
   <i name="efermi">      0.43128988 </i>
   <total>
    <array>
     <dimension dim="1">gridpoints</dimension>
     <dimension dim="2">spin</dimension>
     <field>energy</field>
     <field>total</field>
     <field>integrated</field>
     <set>
      <set comment="spin 1">
       <r>   -18.1374     0.0000     0.0000 </r>
       <r>   -18.0501     0.0000     0.0000 </r>
       <r>   -17.9627     0.0000     0.0000 </r>
       <r>   -17.8754     0.0000     0.0000 </r>
       <r>   -17.7881    -0.0000    -0.0000 </r>
       <r>   -17.7008    -0.0000    -0.0000 </r>
       <r>   -17.6134    -0.0000    -0.0000 </r>
       <r>   -17.5261    -0.0000    -0.0000 </r>
       <r>   -17.4388    -0.0000    -0.0000 </r>
       <r>   -17.3514    -0.0000    -0.0000 </r>
       <r>   -17.2641    -0.0008    -0.0001 </r>
       <r>   -17.1768    -0.0599    -0.0053 </r>
       <r>   -17.0894    -0.6393    -0.0611 </r>
       <r>   -17.0021     2.9806     0.1992 </r>
       <r>   -16.9148    14.9526     1.5050 </r>
       <r>   -16.8274     6.4751     2.0705 </r>
       <r>   -16.7401    -0.6579     2.0130 </r>
       <r>   -16.6528    -0.1462     2.0003 </r>
       <r>   -16.5655    -0.0031     2.0000 </r>
       <r>   -16.4781    -0.0000     2.0000 </r>
       <r>   -16.3908    -0.0000     2.0000 </r>
       <r>   -16.3035    -0.0000     2.0000 </r>
       <r>   -16.2161     0.0000     2.0000 </r>
       <r>   -16.1288     0.0000     2.0000 </r>
       <r>   -16.0415     0.0000     2.0000 </r>
       <r>   -15.9541     0.0000     2.0000 </r>
       <r>   -15.8668     0.0000     2.0000 </r>
       <r>   -15.7795     0.0000     2.0000 </r>
       <r>   -15.6921     0.0000     2.0000 </r>
       <r>   -15.6048     0.0000     2.0000 </r>
       <r>   -15.5175     0.0000     2.0000 </r>
       <r>   -15.4301     0.0000     2.0000 </r>
       <r>   -15.3428     0.0000     2.0000 </r>
       <r>   -15.2555     0.0000     2.0000 </r>
       <r>   -15.1682     0.0000     2.0000 </r>
       <r>   -15.0808     0.0000     2.0000 </r>
       <r>   -14.9935     0.0000     2.0000 </r>
       <r>   -14.9062     0.0000     2.0000 </r>
       <r>   -14.8188     0.0000     2.0000 </r>
       <r>   -14.7315     0.0000     2.0000 </r>
       <r>   -14.6442     0.0000     2.0000 </r>
       <r>   -14.5568     0.0000     2.0000 </r>
       <r>   -14.4695     0.0000     2.0000 </r>
       <r>   -14.3822     0.0000     2.0000 </r>
       <r>   -14.2948     0.0000     2.0000 </r>
       <r>   -14.2075     0.0000     2.0000 </r>
       <r>   -14.1202     0.0000     2.0000 </r>
       <r>   -14.0328     0.0000     2.0000 </r>
       <r>   -13.9455     0.0000     2.0000 </r>
       <r>   -13.8582     0.0000     2.0000 </r>
       <r>   -13.7709     0.0000     2.0000 </r>
       <r>   -13.6835     0.0000     2.0000 </r>
       <r>   -13.5962     0.0000     2.0000 </r>
       <r>   -13.5089     0.0000     2.0000 </r>
       <r>   -13.4215     0.0000     2.0000 </r>
       <r>   -13.3342     0.0000     2.0000 </r>
       <r>   -13.2469     0.0000     2.0000 </r>
       <r>   -13.1595     0.0000     2.0000 </r>
       <r>   -13.0722     0.0000     2.0000 </r>
       <r>   -12.9849     0.0000     2.0000 </r>
       <r>   -12.8975     0.0000     2.0000 </r>
       <r>   -12.8102     0.0000     2.0000 </r>
       <r>   -12.7229     0.0000     2.0000 </r>
       <r>   -12.6355     0.0000     2.0000 </r>
       <r>   -12.5482     0.0000     2.0000 </r>
       <r>   -12.4609     0.0000     2.0000 </r>
       <r>   -12.3736     0.0000     2.0000 </r>
       <r>   -12.2862     0.0000     2.0000 </r>
       <r>   -12.1989     0.0000     2.0000 </r>
       <r>   -12.1116     0.0000     2.0000 </r>
       <r>   -12.0242     0.0000     2.0000 </r>
       <r>   -11.9369     0.0000     2.0000 </r>
       <r>   -11.8496     0.0000     2.0000 </r>
       <r>   -11.7622     0.0000     2.0000 </r>
       <r>   -11.6749     0.0000     2.0000 </r>
       <r>   -11.5876     0.0000     2.0000 </r>
       <r>   -11.5002     0.0000     2.0000 </r>
       <r>   -11.4129     0.0000     2.0000 </r>
       <r>   -11.3256     0.0000     2.0000 </r>
       <r>   -11.2382     0.0000     2.0000 </r>
       <r>   -11.1509     0.0000     2.0000 </r>
       <r>   -11.0636     0.0000     2.0000 </r>
       <r>   -10.9763     0.0000     2.0000 </r>
       <r>   -10.8889     0.0000     2.0000 </r>
       <r>   -10.8016     0.0000     2.0000 </r>
       <r>   -10.7143     0.0000     2.0000 </r>
       <r>   -10.6269     0.0000     2.0000 </r>
       <r>   -10.5396     0.0000     2.0000 </r>
       <r>   -10.4523     0.0000     2.0000 </r>
       <r>   -10.3649     0.0000     2.0000 </r>
       <r>   -10.2776     0.0000     2.0000 </r>
       <r>   -10.1903     0.0000     2.0000 </r>
       <r>   -10.1029     0.0000     2.0000 </r>
       <r>   -10.0156     0.0000     2.0000 </r>
       <r>    -9.9283     0.0000     2.0000 </r>
       <r>    -9.8410     0.0000     2.0000 </r>
       <r>    -9.7536     0.0000     2.0000 </r>
       <r>    -9.6663     0.0000     2.0000 </r>
       <r>    -9.5790     0.0000     2.0000 </r>
       <r>    -9.4916     0.0000     2.0000 </r>
       <r>    -9.4043     0.0000     2.0000 </r>
       <r>    -9.3170     0.0000     2.0000 </r>
       <r>    -9.2296     0.0000     2.0000 </r>
       <r>    -9.1423     0.0000     2.0000 </r>
       <r>    -9.0550    -0.0000     2.0000 </r>
       <r>    -8.9676    -0.0000     2.0000 </r>
       <r>    -8.8803    -0.0000     2.0000 </r>
       <r>    -8.7930    -0.0000     2.0000 </r>
       <r>    -8.7056    -0.0000     2.0000 </r>
       <r>    -8.6183    -0.0000     2.0000 </r>
       <r>    -8.5310    -0.0016     1.9999 </r>
       <r>    -8.4437    -0.0743     1.9934 </r>
       <r>    -8.3563    -0.3270     1.9648 </r>
       <r>    -8.2690     3.2754     2.2509 </r>
       <r>    -8.1817     7.4636     2.9027 </r>
       <r>    -8.0943     1.4432     3.0287 </r>
       <r>    -8.0070    -0.5924     2.9770 </r>
       <r>    -7.9197     0.8440     3.0507 </r>
       <r>    -7.8323     7.0581     3.6671 </r>
       <r>    -7.7450     4.1698     4.0312 </r>
       <r>    -7.6577    -0.2498     4.0094 </r>
       <r>    -7.5703    -0.1050     4.0002 </r>
       <r>    -7.4830    -0.0037     3.9999 </r>
       <r>    -7.3957    -0.0614     3.9946 </r>
       <r>    -7.3083    -0.6042     3.9418 </r>
       <r>    -7.2210     2.2817     4.1411 </r>
       <r>    -7.1337    16.6905     5.5987 </r>
       <r>    -7.0464    15.0863     6.9162 </r>
       <r>    -6.9590     1.9662     7.0879 </r>
       <r>    -6.8717     6.0383     7.6152 </r>
       <r>    -6.7844     6.5523     8.1874 </r>
       <r>    -6.6970     7.3914     8.8329 </r>
       <r>    -6.6097     2.1744     9.0228 </r>
       <r>    -6.5224    -0.9788     8.9373 </r>
       <r>    -6.4350     5.8339     9.4468 </r>
       <r>    -6.3477    14.3610    10.7010 </r>
       <r>    -6.2604     4.0802    11.0573 </r>
       <r>    -6.1730    13.8540    12.2672 </r>
       <r>    -6.0857    31.7707    15.0418 </r>
       <r>    -5.9984    35.7459    18.1635 </r>
       <r>    -5.9110    29.9202    20.7765 </r>
       <r>    -5.8237    32.1508    23.5842 </r>
       <r>    -5.7364    56.3770    28.5077 </r>
       <r>    -5.6491    37.9901    31.8254 </r>
       <r>    -5.5617    29.9851    34.4441 </r>
       <r>    -5.4744    41.0318    38.0274 </r>
       <r>    -5.3871    57.0819    43.0124 </r>
       <r>    -5.2997    89.9397    50.8670 </r>
       <r>    -5.2124    96.5288    59.2969 </r>
       <r>    -5.1251    57.0287    64.2773 </r>
       <r>    -5.0377    53.5607    68.9548 </r>
       <r>    -4.9504    53.4112    73.6193 </r>
       <r>    -4.8631    48.0858    77.8187 </r>
       <r>    -4.7757    39.6030    81.2773 </r>
       <r>    -4.6884    51.0530    85.7358 </r>
       <r>    -4.6011    77.4027    92.4955 </r>
       <r>    -4.5137    61.9602    97.9065 </r>
       <r>    -4.4264    53.9368   102.6169 </r>
       <r>    -4.3391    77.3741   109.3741 </r>
       <r>    -4.2518    66.3620   115.1695 </r>
       <r>    -4.1644    62.7198   120.6469 </r>
       <r>    -4.0771    80.3806   127.6666 </r>
       <r>    -3.9898    75.8090   134.2871 </r>
       <r>    -3.9024    78.3065   141.1257 </r>
       <r>    -3.8151    83.2354   148.3948 </r>
       <r>    -3.7278    90.3741   156.2873 </r>
       <r>    -3.6404   108.3566   165.7502 </r>
       <r>    -3.5531   107.5608   175.1436 </r>
       <r>    -3.4658   116.6402   185.3299 </r>
       <r>    -3.3784   120.9083   195.8890 </r>
       <r>    -3.2911    91.6358   203.8916 </r>
       <r>    -3.2038    80.6147   210.9318 </r>
       <r>    -3.1165    96.9481   219.3984 </r>
       <r>    -3.0291    76.1931   226.0524 </r>
       <r>    -2.9418    53.8636   230.7564 </r>
       <r>    -2.8545    71.5255   237.0028 </r>
       <r>    -2.7671    98.6232   245.6157 </r>
       <r>    -2.6798    72.1097   251.9131 </r>
       <r>    -2.5925    77.3832   258.6711 </r>
       <r>    -2.5051    74.1757   265.1489 </r>
       <r>    -2.4178    72.7339   271.5009 </r>
       <r>    -2.3305    81.7559   278.6407 </r>
       <r>    -2.2431    81.9069   285.7937 </r>
       <r>    -2.1558    94.8339   294.0757 </r>
       <r>    -2.0685    93.1859   302.2137 </r>
       <r>    -1.9811    98.0280   310.7746 </r>
       <r>    -1.8938    75.9479   317.4072 </r>
       <r>    -1.8065    58.5312   322.5188 </r>
       <r>    -1.7192    72.1173   328.8169 </r>
       <r>    -1.6318   118.9642   339.2062 </r>
       <r>    -1.5445   142.8131   351.6782 </r>
       <r>    -1.4572   111.0846   361.3794 </r>
       <r>    -1.3698    88.5959   369.1166 </r>
       <r>    -1.2825    62.1547   374.5446 </r>
       <r>    -1.1952    32.3113   377.3664 </r>
       <r>    -1.1078    13.9553   378.5851 </r>
       <r>    -1.0205    16.5420   380.0298 </r>
       <r>    -0.9332    28.7980   382.5447 </r>
       <r>    -0.8458    30.1195   385.1751 </r>
       <r>    -0.7585    19.1026   386.8434 </r>
       <r>    -0.6712    16.9853   388.3267 </r>
       <r>    -0.5838    18.4083   389.9343 </r>
       <r>    -0.4965    19.0280   391.5961 </r>
       <r>    -0.4092    15.5563   392.9546 </r>
       <r>    -0.3219    12.2400   394.0235 </r>
       <r>    -0.2345    12.3255   395.0999 </r>
       <r>    -0.1472     9.1137   395.8958 </r>
       <r>    -0.0599     6.4507   396.4592 </r>
       <r>     0.0275    11.0839   397.4272 </r>
       <r>     0.1148    15.0854   398.7446 </r>
       <r>     0.2021     2.9864   399.0054 </r>
       <r>     0.2895     2.7813   399.2483 </r>
       <r>     0.3768    15.9366   400.6401 </r>
       <r>     0.4641    25.0789   402.8302 </r>
       <r>     0.5515    13.5684   404.0152 </r>
       <r>     0.6388    -0.2755   403.9911 </r>
       <r>     0.7261     6.3927   404.5494 </r>
       <r>     0.8135    17.4919   406.0770 </r>
       <r>     0.9008    17.9807   407.6472 </r>
       <r>     0.9881    20.5535   409.4422 </r>
       <r>     1.0754    11.5129   410.4476 </r>
       <r>     1.1628     6.4920   411.0146 </r>
       <r>     1.2501    11.5401   412.0224 </r>
       <r>     1.3374    16.0621   413.4251 </r>
       <r>     1.4248    10.5472   414.3462 </r>
       <r>     1.5121     7.2841   414.9824 </r>
       <r>     1.5994     6.9777   415.5917 </r>
       <r>     1.6868     4.9499   416.0240 </r>
       <r>     1.7741     9.8217   416.8818 </r>
       <r>     1.8614    16.1769   418.2945 </r>
       <r>     1.9488    15.2845   419.6293 </r>
       <r>     2.0361     4.8239   420.0506 </r>
       <r>     2.1234    16.1229   421.4586 </r>
       <r>     2.2108    23.9439   423.5497 </r>
       <r>     2.2981     6.8366   424.1467 </r>
       <r>     2.3854     8.7869   424.9141 </r>
       <r>     2.4727    11.1001   425.8835 </r>
       <r>     2.5601     1.0518   425.9753 </r>
       <r>     2.6474     4.7398   426.3893 </r>
       <r>     2.7347    17.1181   427.8842 </r>
       <r>     2.8221    21.0898   429.7260 </r>
       <r>     2.9094    28.2346   432.1918 </r>
       <r>     2.9967    17.8423   433.7499 </r>
       <r>     3.0841    12.3046   434.8245 </r>
       <r>     3.1714     3.0459   435.0905 </r>
       <r>     3.2587     4.5374   435.4868 </r>
       <r>     3.3461     6.4447   436.0496 </r>
       <r>     3.4334    12.7803   437.1657 </r>
       <r>     3.5207    15.7040   438.5372 </r>
       <r>     3.6080    11.9210   439.5783 </r>
       <r>     3.6954    13.0194   440.7153 </r>
       <r>     3.7827     3.3563   441.0084 </r>
       <r>     3.8700     0.7648   441.0752 </r>
       <r>     3.9574    14.3591   442.3292 </r>
       <r>     4.0447    27.2742   444.7110 </r>
       <r>     4.1320    21.2269   446.5648 </r>
       <r>     4.2194     7.7659   447.2430 </r>
       <r>     4.3067    10.0032   448.1166 </r>
       <r>     4.3940    10.9110   449.0695 </r>
       <r>     4.4814    13.7443   450.2698 </r>
       <r>     4.5687    14.7833   451.5608 </r>
       <r>     4.6560     7.3798   452.2053 </r>
       <r>     4.7434     8.7165   452.9666 </r>
       <r>     4.8307    16.8807   454.4408 </r>
       <r>     4.9180    16.4134   455.8742 </r>
       <r>     5.0053     2.6562   456.1061 </r>
       <r>     5.0927     5.6007   456.5952 </r>
       <r>     5.1800    14.3914   457.8521 </r>
       <r>     5.2673    21.1273   459.6971 </r>
       <r>     5.3547    15.0674   461.0130 </r>
       <r>     5.4420    12.4357   462.0990 </r>
       <r>     5.5293    16.3747   463.5290 </r>
       <r>     5.6167    11.7138   464.5520 </r>
       <r>     5.7040    16.2034   465.9671 </r>
       <r>     5.7913    20.2971   467.7397 </r>
       <r>     5.8787    25.8960   470.0012 </r>
       <r>     5.9660    32.5244   472.8416 </r>
       <r>     6.0533    24.8190   475.0090 </r>
       <r>     6.1407    21.4478   476.8821 </r>
       <r>     6.2280    14.0917   478.1127 </r>
       <r>     6.3153     2.9594   478.3712 </r>
       <r>     6.4026    -0.5614   478.3222 </r>
       <r>     6.4900     0.7513   478.3878 </r>
       <r>     6.5773     7.0982   479.0077 </r>
       <r>     6.6646    18.2355   480.6002 </r>
       <r>     6.7520    16.7364   482.0618 </r>
       <r>     6.8393    14.8002   483.3543 </r>
       <r>     6.9266     7.4442   484.0044 </r>
       <r>     7.0140     0.2280   484.0243 </r>
       <r>     7.1013    -0.2620   484.0015 </r>
       <r>     7.1886    -0.0166   484.0000 </r>
       <r>     7.2760    -0.0002   484.0000 </r>
       <r>     7.3633    -0.0000   484.0000 </r>
       <r>     7.4506    -0.0000   484.0000 </r>
       <r>     7.5380    -0.0000   484.0000 </r>
       <r>     7.6253     0.0000   484.0000 </r>
       <r>     7.7126     0.0000   484.0000 </r>
       <r>     7.7999     0.0000   484.0000 </r>
       <r>     7.8873     0.0000   484.0000 </r>
       <r>     7.9746     0.0000   484.0000 </r>
       <r>     8.0619     0.0000   484.0000 </r>
      </set>
     </set>
    </array>
   </total>
  </dos>
 </calculation>
 <structure name="finalpos" >
  <crystal>
   <varray name="basis" >
    <v>       8.80347943       0.00000000       0.00000000 </v>
    <v>       4.40173971       7.62403682       0.00000000 </v>
    <v>       0.00000000       0.00000000      23.18801085 </v>
   </varray>
   <i name="volume">   1556.33410245 </i>
   <varray name="rec_basis" >
    <v>       0.11359145      -0.06558205       0.00000000 </v>
    <v>       0.00000000       0.13116411       0.00000000 </v>
    <v>       0.00000000       0.00000000       0.04312573 </v>
   </varray>
  </crystal>
  <varray name="positions" >
   <v>       0.00000000       0.00000000       0.00000000 </v>
   <v>       0.33333333       0.00000000       0.00000000 </v>
   <v>       0.66666667       0.00000000       0.00000000 </v>
   <v>       0.00000000       0.33333333       0.00000000 </v>
   <v>       0.33333333       0.33333333       0.00000000 </v>
   <v>       0.66666667       0.33333333       0.00000000 </v>
   <v>       0.00000000       0.66666667       0.00000000 </v>
   <v>       0.33333333       0.66666667       0.00000000 </v>
   <v>       0.66666667       0.66666667       0.00000000 </v>
   <v>       0.11111111       0.11111111       0.10332942 </v>
   <v>       0.44444444       0.11111111       0.10332942 </v>
   <v>       0.77777778       0.11111111       0.10332942 </v>
   <v>       0.11111111       0.44444444       0.10332942 </v>
   <v>       0.44444444       0.44444444       0.10332942 </v>
   <v>       0.77777778       0.44444444       0.10332942 </v>
   <v>       0.11111111       0.77777778       0.10332942 </v>
   <v>       0.44444444       0.77777778       0.10332942 </v>
   <v>       0.77777778       0.77777778       0.10332942 </v>
   <v>       0.88901241       0.22358916       0.20687213 </v>
   <v>       0.21991860       0.22218644       0.20852840 </v>
   <v>       0.55240282       0.22181196       0.20624593 </v>
   <v>       0.89005389       0.55259094       0.20656730 </v>
   <v>       0.22004875       0.55422402       0.20624200 </v>
   <v>       0.55356059       0.55518775       0.20439117 </v>
   <v>       0.88778386       0.88942991       0.20457075 </v>
   <v>       0.22169860       0.89092981       0.20682724 </v>
   <v>       0.55067242       0.89200702       0.20650393 </v>
   <v>       0.99710842       0.00001670       0.30787463 </v>
   <v>       0.35255374       0.98200082       0.31457446 </v>
   <v>       0.67129332       0.00067947       0.30959745 </v>
   <v>       0.97821511       0.35585193       0.31498613 </v>
   <v>       0.33254333       0.33565575       0.31211451 </v>
   <v>       0.66058672       0.33500118       0.30900241 </v>
   <v>       0.99789325       0.67402275       0.30960759 </v>
   <v>       0.33204019       0.66380929       0.30895252 </v>
   <v>       0.66335443       0.66654516       0.30655996 </v>
   <v>       0.18610209       0.18906555       0.36804158 </v>
  </varray>
  <varray name="selective"  type="logical" >
   <v type="logical" >  F  F  F </v>
   <v type="logical" >  F  F  F </v>
   <v type="logical" >  F  F  F </v>
   <v type="logical" >  F  F  F </v>
   <v type="logical" >  F  F  F </v>
   <v type="logical" >  F  F  F </v>
   <v type="logical" >  F  F  F </v>
   <v type="logical" >  F  F  F </v>
   <v type="logical" >  F  F  F </v>
   <v type="logical" >  F  F  F </v>
   <v type="logical" >  F  F  F </v>
   <v type="logical" >  F  F  F </v>
   <v type="logical" >  F  F  F </v>
   <v type="logical" >  F  F  F </v>
   <v type="logical" >  F  F  F </v>
   <v type="logical" >  F  F  F </v>
   <v type="logical" >  F  F  F </v>
   <v type="logical" >  F  F  F </v>
   <v type="logical" >  T  T  T </v>
   <v type="logical" >  T  T  T </v>
   <v type="logical" >  T  T  T </v>
   <v type="logical" >  T  T  T </v>
   <v type="logical" >  T  T  T </v>
   <v type="logical" >  T  T  T </v>
   <v type="logical" >  T  T  T </v>
   <v type="logical" >  T  T  T </v>
   <v type="logical" >  T  T  T </v>
   <v type="logical" >  T  T  T </v>
   <v type="logical" >  T  T  T </v>
   <v type="logical" >  T  T  T </v>
   <v type="logical" >  T  T  T </v>
   <v type="logical" >  T  T  T </v>
   <v type="logical" >  T  T  T </v>
   <v type="logical" >  T  T  T </v>
   <v type="logical" >  T  T  T </v>
   <v type="logical" >  T  T  T </v>
   <v type="logical" >  T  T  T </v>
  </varray>
  <nose>
   <v>      -3.00000000       0.00000000       0.00010000       0.00010000 </v>
  </nose>
 </structure>
</modeling>
