unknown system                          
           1
     8.803479    0.000000    0.000000
     4.401740    7.624037    0.000000
     0.000000    0.000000   23.188011
   Au   O 
    36     1
Direct configuration=     1
   0.00000000  0.00000000  0.00000000
   0.33333333  0.00000000  0.00000000
   0.66666667  0.00000000  0.00000000
   0.00000000  0.33333333  0.00000000
   0.33333333  0.33333333  0.00000000
   0.66666667  0.33333333  0.00000000
   0.00000000  0.66666667  0.00000000
   0.33333333  0.66666667  0.00000000
   0.66666667  0.66666667  0.00000000
   0.11111111  0.11111111  0.10332942
   0.44444444  0.11111111  0.10332942
   0.77777778  0.11111111  0.10332942
   0.11111111  0.44444444  0.10332942
   0.44444444  0.44444444  0.10332942
   0.77777778  0.44444444  0.10332942
   0.11111111  0.77777778  0.10332942
   0.44444444  0.77777778  0.10332942
   0.77777778  0.77777778  0.10332942
   0.88901241  0.22358916  0.20687213
   0.21991860  0.22218644  0.20852840
   0.55240282  0.22181196  0.20624593
   0.89005389  0.55259094  0.20656730
   0.22004875  0.55422402  0.20624200
   0.55356059  0.55518775  0.20439117
   0.88778386  0.88942991  0.20457075
   0.22169860  0.89092981  0.20682724
   0.55067242  0.89200702  0.20650393
   0.99710842  0.00001670  0.30787463
   0.35255374  0.98200082  0.31457446
   0.67129332  0.00067947  0.30959745
   0.97821511  0.35585193  0.31498613
   0.33254333  0.33565575  0.31211451
   0.66058672  0.33500118  0.30900241
   0.99789325  0.67402275  0.30960759
   0.33204019  0.66380929  0.30895252
   0.66335443  0.66654516  0.30655996
   0.18610209  0.18906555  0.36804158
