  39  39   0   0
  0.3566249E+02  0.8358002E-09  0.8358002E-09  0.1991000E-08  0.5000000E-15
   1.0000000000000000E-004
  CAR 
 unknown system                          
      6.96659608    -14.14533333  301      0.69279701      1.00000000
    -14.145  0.0000E+00  0.0000E+00
    -14.075  0.0000E+00  0.0000E+00
    -14.005 -0.5935E-30 -0.4177E-31
    -13.934 -0.5935E-25 -0.4177E-26
    -13.864 -0.2187E-20 -0.1539E-21
    -13.793 -0.2964E-16 -0.2086E-17
    -13.723 -0.1427E-12 -0.1004E-13
    -13.653 -0.2580E-09 -0.1817E-10
    -13.582 -0.1686E-06 -0.1188E-07
    -13.512 -0.3944E-04 -0.2787E-05
    -13.442 -0.3225E-02 -0.2298E-03
    -13.371 -0.8694E-01 -0.6348E-02
    -13.301 -0.6242E+00 -0.5027E-01
    -13.230  0.6554E+00 -0.4149E-02
    -13.160  0.1076E+02  0.7529E+00
    -13.090  0.1486E+02  0.1799E+01
    -13.019  0.3865E+01  0.2071E+01
    -12.949 -0.7474E+00  0.2018E+01
    -12.879 -0.2401E+00  0.2001E+01
    -12.808 -0.1481E-01  0.2000E+01
    -12.738 -0.2856E-03  0.2000E+01
    -12.667 -0.1890E-05  0.2000E+01
    -12.597 -0.4444E-08  0.2000E+01
    -12.527 -0.3774E-11  0.2000E+01
    -12.456  0.0000E+00  0.2000E+01
    -12.386  0.0000E+00  0.2000E+01
    -12.316  0.0000E+00  0.2000E+01
    -12.245  0.0000E+00  0.2000E+01
    -12.175  0.0000E+00  0.2000E+01
    -12.105  0.0000E+00  0.2000E+01
    -12.034  0.0000E+00  0.2000E+01
    -11.964  0.0000E+00  0.2000E+01
    -11.893  0.0000E+00  0.2000E+01
    -11.823  0.0000E+00  0.2000E+01
    -11.753  0.0000E+00  0.2000E+01
    -11.682  0.0000E+00  0.2000E+01
    -11.612  0.0000E+00  0.2000E+01
    -11.542  0.0000E+00  0.2000E+01
    -11.471  0.0000E+00  0.2000E+01
    -11.401  0.0000E+00  0.2000E+01
    -11.330  0.0000E+00  0.2000E+01
    -11.260  0.0000E+00  0.2000E+01
    -11.190  0.0000E+00  0.2000E+01
    -11.119  0.0000E+00  0.2000E+01
    -11.049  0.0000E+00  0.2000E+01
    -10.979  0.0000E+00  0.2000E+01
    -10.908  0.0000E+00  0.2000E+01
    -10.838  0.0000E+00  0.2000E+01
    -10.767  0.0000E+00  0.2000E+01
    -10.697  0.0000E+00  0.2000E+01
    -10.627  0.0000E+00  0.2000E+01
    -10.556  0.0000E+00  0.2000E+01
    -10.486  0.0000E+00  0.2000E+01
    -10.416  0.0000E+00  0.2000E+01
    -10.345  0.0000E+00  0.2000E+01
    -10.275  0.0000E+00  0.2000E+01
    -10.204  0.0000E+00  0.2000E+01
    -10.134  0.0000E+00  0.2000E+01
    -10.064  0.0000E+00  0.2000E+01
     -9.993  0.0000E+00  0.2000E+01
     -9.923  0.0000E+00  0.2000E+01
     -9.853  0.0000E+00  0.2000E+01
     -9.782  0.0000E+00  0.2000E+01
     -9.712  0.0000E+00  0.2000E+01
     -9.641  0.0000E+00  0.2000E+01
     -9.571  0.0000E+00  0.2000E+01
     -9.501  0.0000E+00  0.2000E+01
     -9.430  0.0000E+00  0.2000E+01
     -9.360  0.0000E+00  0.2000E+01
     -9.290  0.0000E+00  0.2000E+01
     -9.219  0.0000E+00  0.2000E+01
     -9.149  0.0000E+00  0.2000E+01
     -9.078  0.0000E+00  0.2000E+01
     -9.008  0.0000E+00  0.2000E+01
     -8.938  0.0000E+00  0.2000E+01
     -8.867  0.0000E+00  0.2000E+01
     -8.797  0.0000E+00  0.2000E+01
     -8.727  0.0000E+00  0.2000E+01
     -8.656  0.0000E+00  0.2000E+01
     -8.586  0.0000E+00  0.2000E+01
     -8.515  0.0000E+00  0.2000E+01
     -8.445  0.0000E+00  0.2000E+01
     -8.375  0.0000E+00  0.2000E+01
     -8.304  0.0000E+00  0.2000E+01
     -8.234  0.0000E+00  0.2000E+01
     -8.164  0.0000E+00  0.2000E+01
     -8.093  0.0000E+00  0.2000E+01
     -8.023  0.0000E+00  0.2000E+01
     -7.953  0.0000E+00  0.2000E+01
     -7.882  0.0000E+00  0.2000E+01
     -7.812  0.0000E+00  0.2000E+01
     -7.741  0.0000E+00  0.2000E+01
     -7.671  0.0000E+00  0.2000E+01
     -7.601  0.0000E+00  0.2000E+01
     -7.530  0.0000E+00  0.2000E+01
     -7.460  0.0000E+00  0.2000E+01
     -7.390  0.0000E+00  0.2000E+01
     -7.319  0.0000E+00  0.2000E+01
     -7.249  0.0000E+00  0.2000E+01
     -7.178  0.0000E+00  0.2000E+01
     -7.108  0.0000E+00  0.2000E+01
     -7.038  0.0000E+00  0.2000E+01
     -6.967  0.0000E+00  0.2000E+01
     -6.897  0.0000E+00  0.2000E+01
     -6.827  0.0000E+00  0.2000E+01
     -6.756  0.0000E+00  0.2000E+01
     -6.686  0.0000E+00  0.2000E+01
     -6.615  0.0000E+00  0.2000E+01
     -6.545  0.0000E+00  0.2000E+01
     -6.475 -0.4865E-27  0.2000E+01
     -6.404 -0.2748E-22  0.2000E+01
     -6.334 -0.5716E-18  0.2000E+01
     -6.264 -0.4367E-14  0.2000E+01
     -6.193 -0.1181E-10  0.2000E+01
     -6.123 -0.1192E-07  0.2000E+01
     -6.052 -0.4338E-05  0.2000E+01
     -5.982 -0.5586E-03  0.2000E+01
     -5.912 -0.2449E-01  0.1998E+01
     -5.841 -0.3262E+00  0.1975E+01
     -5.771 -0.6313E+00  0.1931E+01
     -5.701  0.5508E+01  0.2318E+01
     -5.630  0.1560E+02  0.3416E+01
     -5.560  0.8793E+01  0.4035E+01
     -5.489 -0.6028E+00  0.3992E+01
     -5.419 -0.2637E-01  0.3990E+01
     -5.349  0.1029E+02  0.4715E+01
     -5.278  0.1506E+02  0.5775E+01
     -5.208  0.4207E+01  0.6071E+01
     -5.138 -0.7550E+00  0.6018E+01
     -5.067 -0.5671E+00  0.5978E+01
     -4.997 -0.6788E+00  0.5930E+01
     -4.926  0.5196E+01  0.6296E+01
     -4.856  0.1550E+02  0.7387E+01
     -4.786  0.9217E+01  0.8035E+01
     -4.715  0.9874E-01  0.8042E+01
     -4.645 -0.5376E+00  0.8004E+01
     -4.575 -0.1210E+00  0.7996E+01
     -4.504 -0.6455E+00  0.7950E+01
     -4.434 -0.8305E+00  0.7892E+01
     -4.363  0.1050E+02  0.8631E+01
     -4.293  0.2867E+02  0.1065E+02
     -4.223  0.1832E+02  0.1194E+02
     -4.152  0.6108E+00  0.1198E+02
     -4.082  0.8160E+01  0.1256E+02
     -4.012  0.2959E+02  0.1464E+02
     -3.941  0.3196E+02  0.1689E+02
     -3.871  0.3231E+02  0.1916E+02
     -3.800  0.6933E+02  0.2404E+02
     -3.730  0.7288E+02  0.2917E+02
     -3.660  0.6280E+02  0.3359E+02
     -3.589  0.6711E+02  0.3831E+02
     -3.519  0.4771E+02  0.4167E+02
     -3.449  0.4840E+02  0.4507E+02
     -3.378  0.6080E+02  0.4935E+02
     -3.308  0.4942E+02  0.5283E+02
     -3.238  0.7197E+02  0.5789E+02
     -3.167  0.8441E+02  0.6383E+02
     -3.097  0.6480E+02  0.6839E+02
     -3.026  0.6087E+02  0.7268E+02
     -2.956  0.7760E+02  0.7814E+02
     -2.886  0.9827E+02  0.8506E+02
     -2.815  0.6469E+02  0.8961E+02
     -2.745  0.3836E+02  0.9231E+02
     -2.675  0.4482E+02  0.9546E+02
     -2.604  0.6099E+02  0.9975E+02
     -2.534  0.6474E+02  0.1043E+03
     -2.463  0.7738E+02  0.1098E+03
     -2.393  0.9200E+02  0.1162E+03
     -2.323  0.6858E+02  0.1211E+03
     -2.252  0.4956E+02  0.1245E+03
     -2.182  0.5506E+02  0.1284E+03
     -2.112  0.6730E+02  0.1332E+03
     -2.041  0.7394E+02  0.1384E+03
     -1.971  0.6770E+02  0.1431E+03
     -1.900  0.6033E+02  0.1474E+03
     -1.830  0.4704E+02  0.1507E+03
     -1.760  0.6674E+02  0.1554E+03
     -1.689  0.1155E+03  0.1635E+03
     -1.619  0.1266E+03  0.1724E+03
     -1.549  0.9876E+02  0.1794E+03
     -1.478  0.7864E+02  0.1849E+03
     -1.408  0.9149E+02  0.1913E+03
     -1.337  0.9501E+02  0.1980E+03
     -1.267  0.8282E+02  0.2039E+03
     -1.197  0.6300E+02  0.2083E+03
     -1.126  0.4813E+02  0.2117E+03
     -1.056  0.6477E+02  0.2162E+03
     -0.986  0.6228E+02  0.2206E+03
     -0.915  0.5529E+02  0.2245E+03
     -0.845  0.1040E+03  0.2318E+03
     -0.774  0.1408E+03  0.2417E+03
     -0.704  0.1111E+03  0.2496E+03
     -0.634  0.8965E+02  0.2559E+03
     -0.563  0.7613E+02  0.2612E+03
     -0.493  0.6490E+02  0.2658E+03
     -0.423  0.8919E+02  0.2721E+03
     -0.352  0.8250E+02  0.2779E+03
     -0.282  0.6030E+02  0.2821E+03
     -0.211  0.8035E+02  0.2878E+03
     -0.141  0.9738E+02  0.2946E+03
     -0.071  0.7249E+02  0.2997E+03
     -0.000  0.5715E+02  0.3037E+03
      0.070  0.7085E+02  0.3087E+03
      0.140  0.8965E+02  0.3150E+03
      0.211  0.1049E+03  0.3224E+03
      0.281  0.8884E+02  0.3287E+03
      0.352  0.7299E+02  0.3338E+03
      0.422  0.1065E+03  0.3413E+03
      0.492  0.1255E+03  0.3501E+03
      0.563  0.8981E+02  0.3565E+03
      0.633  0.7816E+02  0.3620E+03
      0.703  0.1019E+03  0.3691E+03
      0.774  0.8978E+02  0.3755E+03
      0.844  0.4638E+02  0.3787E+03
      0.915  0.2182E+02  0.3803E+03
      0.985  0.1988E+02  0.3816E+03
      1.055  0.2263E+02  0.3832E+03
      1.126  0.1121E+02  0.3840E+03
      1.196 -0.1511E-01  0.3840E+03
      1.266 -0.1277E+01  0.3839E+03
      1.337  0.5804E+01  0.3843E+03
      1.407  0.1443E+02  0.3854E+03
      1.477  0.1389E+02  0.3863E+03
      1.548  0.2699E+02  0.3882E+03
      1.618  0.3368E+02  0.3906E+03
      1.689  0.2487E+02  0.3924E+03
      1.759  0.1733E+02  0.3936E+03
      1.829  0.1163E+02  0.3944E+03
      1.900  0.1446E+02  0.3954E+03
      1.970  0.7411E+01  0.3959E+03
      2.040  0.8078E+01  0.3965E+03
      2.111  0.2550E+02  0.3983E+03
      2.181  0.2162E+02  0.3998E+03
      2.252  0.1247E+02  0.4007E+03
      2.322  0.1439E+02  0.4017E+03
      2.392  0.4777E+01  0.4020E+03
      2.463 -0.1347E+01  0.4020E+03
      2.533  0.4628E+01  0.4023E+03
      2.603  0.1539E+02  0.4034E+03
      2.674  0.9498E+01  0.4040E+03
      2.744  0.1791E+00  0.4040E+03
      2.815 -0.7083E+00  0.4040E+03
      2.885 -0.8112E+00  0.4039E+03
      2.955  0.2149E+01  0.4041E+03
      3.026  0.1325E+02  0.4050E+03
      3.096  0.1242E+02  0.4059E+03
      3.166  0.1290E+01  0.4060E+03
      3.237  0.6197E+01  0.4064E+03
      3.307  0.1979E+02  0.4078E+03
      3.378  0.2591E+02  0.4096E+03
      3.448  0.2576E+02  0.4115E+03
      3.518  0.2180E+02  0.4130E+03
      3.589  0.1315E+02  0.4139E+03
      3.659  0.1300E+01  0.4140E+03
      3.729  0.4367E+01  0.4143E+03
      3.800  0.1489E+02  0.4154E+03
      3.870  0.8833E+01  0.4160E+03
      3.941  0.7411E+01  0.4165E+03
      4.011  0.1455E+02  0.4175E+03
      4.081  0.1102E+02  0.4183E+03
      4.152  0.1451E+02  0.4193E+03
      4.222  0.9016E+01  0.4200E+03
      4.292  0.2691E+01  0.4201E+03
      4.363  0.1289E+02  0.4211E+03
      4.433  0.1261E+02  0.4219E+03
      4.504  0.1426E+01  0.4220E+03
      4.574 -0.1688E+01  0.4219E+03
      4.644  0.3549E+01  0.4222E+03
      4.715  0.1912E+02  0.4235E+03
      4.785  0.2497E+02  0.4253E+03
      4.855  0.1070E+02  0.4260E+03
      4.926 -0.5523E+00  0.4260E+03
      4.996  0.5151E+01  0.4263E+03
      5.067  0.1502E+02  0.4274E+03
      5.137  0.8778E+01  0.4280E+03
      5.207  0.9425E+01  0.4287E+03
      5.278  0.1454E+02  0.4297E+03
      5.348  0.1269E+02  0.4306E+03
      5.418  0.1697E+02  0.4318E+03
      5.489  0.1832E+02  0.4331E+03
      5.559  0.1211E+02  0.4339E+03
      5.630  0.1007E+01  0.4340E+03
      5.700  0.1292E+01  0.4341E+03
      5.770  0.1043E+02  0.4348E+03
      5.841  0.1442E+02  0.4358E+03
      5.911  0.2114E+02  0.4373E+03
      5.981  0.2712E+02  0.4392E+03
      6.052  0.1178E+02  0.4401E+03
      6.122 -0.2369E+00  0.4401E+03
      6.192 -0.7343E+00  0.4400E+03
      6.263 -0.8578E-01  0.4400E+03
      6.333 -0.2950E-02  0.4400E+03
      6.404 -0.3442E-04  0.4400E+03
      6.474 -0.1421E-06  0.4400E+03
      6.544 -0.2111E-09  0.4400E+03
      6.615 -0.1104E-12  0.4400E+03
      6.685  0.0000E+00  0.4400E+03
      6.755  0.0000E+00  0.4400E+03
      6.826  0.0000E+00  0.4400E+03
      6.896  0.0000E+00  0.4400E+03
      6.967  0.0000E+00  0.4400E+03
