   39   39    1    1
  0.3566249E+02  0.8358002E-09  0.8358002E-09  0.1991000E-08  0.5000000E-15
   1.0000000000000000E-004
  CAR 
 unknown system                          
    368      2    220

  0.2500000E+00  0.2500000E+00  0.1262379E-14  0.5000000E+00
      1        -13.145333   1.000000
      2         -5.655841   1.000000
      3         -5.331223   1.000000
      4         -4.879698   1.000000
      5         -4.336645   1.000000
      6         -4.292589   1.000000
      7         -4.058388   1.000000
      8         -3.999623   1.000000
      9         -3.958770   1.000000
     10         -3.843085   1.000000
     11         -3.828850   1.000000
     12         -3.817148   1.000000
     13         -3.801112   1.000000
     14         -3.773237   1.000000
     15         -3.748620   1.000000
     16         -3.681069   1.000000
     17         -3.656239   1.000000
     18         -3.634856   1.000000
     19         -3.626845   1.000000
     20         -3.589221   1.000000
     21         -3.529331   1.000000
     22         -3.491486   1.000000
     23         -3.426269   1.000000
     24         -3.414082   1.000000
     25         -3.400422   1.000000
     26         -3.372052   1.000000
     27         -3.272194   1.000000
     28         -3.260376   1.000000
     29         -3.245259   1.000000
     30         -3.232043   1.000000
     31         -3.222363   1.000000
     32         -3.173589   1.000000
     33         -3.159876   1.000000
     34         -3.120814   1.000000
     35         -3.071500   1.000000
     36         -3.058204   1.000000
     37         -3.039342   1.000000
     38         -2.983243   1.000000
     39         -2.949833   1.000000
     40         -2.932283   1.000000
     41         -2.923515   1.000000
     42         -2.908810   1.000000
     43         -2.903324   1.000000
     44         -2.888777   1.000000
     45         -2.821239   1.000000
     46         -2.774153   1.000000
     47         -2.734399   1.000000
     48         -2.660902   1.000000
     49         -2.655883   1.000000
     50         -2.619115   1.000000
     51         -2.591001   1.000000
     52         -2.552387   1.000000
     53         -2.529722   1.000000
     54         -2.483264   1.000000
     55         -2.466652   1.000000
     56         -2.445601   1.000000
     57         -2.426121   1.000000
     58         -2.408958   1.000000
     59         -2.399079   1.000000
     60         -2.367308   1.000000
     61         -2.320739   1.000000
     62         -2.278925   1.000000
     63         -2.242092   1.000000
     64         -2.201582   1.000000
     65         -2.181835   1.000000
     66         -2.128716   1.000000
     67         -2.111699   1.000000
     68         -2.087833   1.000000
     69         -2.065947   1.000000
     70         -2.038290   1.000000
     71         -1.996495   1.000000
     72         -1.967419   1.000000
     73         -1.948233   1.000000
     74         -1.899449   1.000000
     75         -1.888410   1.000000
     76         -1.825120   1.000000
     77         -1.769261   1.000000
     78         -1.753641   1.000000
     79         -1.742752   1.000000
     80         -1.724003   1.000000
     81         -1.716343   1.000000
     82         -1.694203   1.000000
     83         -1.671945   1.000000
     84         -1.660219   1.000000
     85         -1.648164   1.000000
     86         -1.642149   1.000000
     87         -1.610971   1.000000
     88         -1.594126   1.000000
     89         -1.583486   1.000000
     90         -1.562470   1.000000
     91         -1.534409   1.000000
     92         -1.487498   1.000000
     93         -1.464444   1.000000
     94         -1.457821   1.000000
     95         -1.436789   1.000000
     96         -1.404466   1.000000
     97         -1.389648   1.000000
     98         -1.375227   1.000000
     99         -1.357117   1.000000
    100         -1.321380   1.000000
    101         -1.301709   1.000000
    102         -1.274977   1.000000
    103         -1.254943   1.000000
    104         -1.216589   1.000000
    105         -1.204854   1.000000
    106         -1.116847   1.000000
    107         -1.103267   1.000000
    108         -1.059285   1.000000
    109         -1.054184   1.000000
    110         -1.033496   1.000000
    111         -0.982117   1.000000
    112         -0.943424   1.000000
    113         -0.891733   1.000000
    114         -0.878658   1.000000
    115         -0.854901   1.000000
    116         -0.844353   1.000000
    117         -0.835549   1.000000
    118         -0.822163   1.000000
    119         -0.814765   1.000000
    120         -0.793074   1.000000
    121         -0.787621   1.000000
    122         -0.772238   1.000000
    123         -0.761310   1.000000
    124         -0.732906   1.000000
    125         -0.707298   1.000000
    126         -0.685576   1.000000
    127         -0.655964   1.000000
    128         -0.640480   1.000000
    129         -0.617959   1.000000
    130         -0.604652   1.000000
    131         -0.582975   1.000000
    132         -0.534924   1.000000
    133         -0.485265   1.000000
    134         -0.468652   1.000000
    135         -0.452240   1.000000
    136         -0.423633   1.000000
    137         -0.420558   1.000000
    138         -0.403698   1.000000
    139         -0.381110   1.000000
    140         -0.330228   1.000000
    141         -0.299923   1.000000
    142         -0.258376   1.000000
    143         -0.237712   1.000000
    144         -0.215946   1.000000
    145         -0.193191   1.000000
    146         -0.177423   1.000000
    147         -0.164072   1.000000
    148         -0.141120   1.000000
    149         -0.132467   1.000000
    150         -0.074730   1.000000
    151         -0.053532   1.000000
    152         -0.006475   1.000000
    153          0.024770   1.000000
    154          0.043394   1.000000
    155          0.078640   1.000000
    156          0.093676   1.000000
    157          0.117163   1.000000
    158          0.141366   1.000000
    159          0.174125   1.000000
    160          0.185486   1.000000
    161          0.187659   1.000000
    162          0.217396   1.000000
    163          0.234159   1.000000
    164          0.242327   1.000000
    165          0.273337   1.000000
    166          0.330091   1.000002
    167          0.347247   1.000006
    168          0.359784   1.000013
    169          0.390481   1.000082
    170          0.412011   1.000263
    171          0.433887   1.000771
    172          0.439496   1.000998
    173          0.446792   1.001382
    174          0.461912   1.002606
    175          0.477592   1.004745
    176          0.479751   1.005128
    177          0.507846   1.012602
    178          0.551390   1.031246
    179          0.572707   1.035367
    180          0.598344   1.018371
    181          0.619269   0.971589
    182          0.662644   0.742773
    183          0.671789   0.673511
    184          0.690840   0.516558
    185          0.698654   0.450531
    186          0.715601   0.312467
    187          0.728670   0.216986
    188          0.757918   0.058327
    189          0.804329  -0.033327
    190          0.852983  -0.022980
    191          0.962192  -0.000466
    192          1.044114  -0.000004
    193          1.376043  -0.000000
    194          1.520485  -0.000000
    195          1.560654  -0.000000
    196          1.629838  -0.000000
    197          1.724081  -0.000000
    198          1.874020  -0.000000
    199          2.073588  -0.000000
    200          2.125840  -0.000000
    201          2.275262  -0.000000
    202          2.581735  -0.000000
    203          3.023843   0.000000
    204          3.269027   0.000000
    205          3.354172   0.000000
    206          3.426828   0.000000
    207          3.523629   0.000000
    208          3.776279   0.000000
    209          3.972830   0.000000
    210          4.133768   0.000000
    211          4.358567   0.000000
    212          4.695884   0.000000
    213          4.771746   0.000000
    214          5.037983   0.000000
    215          5.221150   0.000000
    216          5.375471   0.000000
    217          5.492367   0.000000
    218          5.801401   0.000000
    219          5.907828   0.000000
    220          5.966596   0.000000

 -0.2500000E+00  0.2500000E+00  0.1262379E-14  0.5000000E+00
      1        -13.145333   1.000000
      2         -5.655502   1.000000
      3         -5.331913   1.000000
      4         -4.879572   1.000000
      5         -4.335519   1.000000
      6         -4.293004   1.000000
      7         -4.058248   1.000000
      8         -3.999831   1.000000
      9         -3.959607   1.000000
     10         -3.843345   1.000000
     11         -3.828533   1.000000
     12         -3.816949   1.000000
     13         -3.801216   1.000000
     14         -3.773528   1.000000
     15         -3.747243   1.000000
     16         -3.681712   1.000000
     17         -3.655958   1.000000
     18         -3.635203   1.000000
     19         -3.626765   1.000000
     20         -3.589618   1.000000
     21         -3.530379   1.000000
     22         -3.489666   1.000000
     23         -3.424969   1.000000
     24         -3.413097   1.000000
     25         -3.400662   1.000000
     26         -3.373805   1.000000
     27         -3.272463   1.000000
     28         -3.260290   1.000000
     29         -3.246053   1.000000
     30         -3.232563   1.000000
     31         -3.222623   1.000000
     32         -3.174044   1.000000
     33         -3.159683   1.000000
     34         -3.120535   1.000000
     35         -3.070213   1.000000
     36         -3.058788   1.000000
     37         -3.038812   1.000000
     38         -2.983405   1.000000
     39         -2.950866   1.000000
     40         -2.931918   1.000000
     41         -2.923185   1.000000
     42         -2.907997   1.000000
     43         -2.902638   1.000000
     44         -2.890804   1.000000
     45         -2.821253   1.000000
     46         -2.774628   1.000000
     47         -2.734377   1.000000
     48         -2.660561   1.000000
     49         -2.655606   1.000000
     50         -2.619067   1.000000
     51         -2.591166   1.000000
     52         -2.551757   1.000000
     53         -2.530479   1.000000
     54         -2.481829   1.000000
     55         -2.469298   1.000000
     56         -2.444389   1.000000
     57         -2.425977   1.000000
     58         -2.408312   1.000000
     59         -2.394261   1.000000
     60         -2.369270   1.000000
     61         -2.322083   1.000000
     62         -2.278950   1.000000
     63         -2.242688   1.000000
     64         -2.201238   1.000000
     65         -2.181476   1.000000
     66         -2.129833   1.000000
     67         -2.110898   1.000000
     68         -2.088227   1.000000
     69         -2.066381   1.000000
     70         -2.039310   1.000000
     71         -1.995876   1.000000
     72         -1.968299   1.000000
     73         -1.948436   1.000000
     74         -1.899458   1.000000
     75         -1.887764   1.000000
     76         -1.824925   1.000000
     77         -1.769568   1.000000
     78         -1.753113   1.000000
     79         -1.741832   1.000000
     80         -1.726483   1.000000
     81         -1.715690   1.000000
     82         -1.692978   1.000000
     83         -1.672973   1.000000
     84         -1.662538   1.000000
     85         -1.648957   1.000000
     86         -1.642013   1.000000
     87         -1.609982   1.000000
     88         -1.593504   1.000000
     89         -1.583581   1.000000
     90         -1.562059   1.000000
     91         -1.533363   1.000000
     92         -1.487698   1.000000
     93         -1.463949   1.000000
     94         -1.458133   1.000000
     95         -1.436905   1.000000
     96         -1.404860   1.000000
     97         -1.389519   1.000000
     98         -1.373543   1.000000
     99         -1.355715   1.000000
    100         -1.323225   1.000000
    101         -1.302377   1.000000
    102         -1.276053   1.000000
    103         -1.255397   1.000000
    104         -1.216815   1.000000
    105         -1.200935   1.000000
    106         -1.116313   1.000000
    107         -1.103308   1.000000
    108         -1.059655   1.000000
    109         -1.054002   1.000000
    110         -1.035048   1.000000
    111         -0.982895   1.000000
    112         -0.942786   1.000000
    113         -0.893646   1.000000
    114         -0.877636   1.000000
    115         -0.855015   1.000000
    116         -0.843201   1.000000
    117         -0.837031   1.000000
    118         -0.822967   1.000000
    119         -0.813955   1.000000
    120         -0.792999   1.000000
    121         -0.787599   1.000000
    122         -0.772424   1.000000
    123         -0.761006   1.000000
    124         -0.732629   1.000000
    125         -0.707255   1.000000
    126         -0.685320   1.000000
    127         -0.656548   1.000000
    128         -0.639096   1.000000
    129         -0.617683   1.000000
    130         -0.605043   1.000000
    131         -0.583121   1.000000
    132         -0.534247   1.000000
    133         -0.485417   1.000000
    134         -0.468856   1.000000
    135         -0.454178   1.000000
    136         -0.424740   1.000000
    137         -0.419604   1.000000
    138         -0.403798   1.000000
    139         -0.380573   1.000000
    140         -0.331425   1.000000
    141         -0.298752   1.000000
    142         -0.260053   1.000000
    143         -0.237718   1.000000
    144         -0.214215   1.000000
    145         -0.192037   1.000000
    146         -0.176797   1.000000
    147         -0.163515   1.000000
    148         -0.140506   1.000000
    149         -0.131877   1.000000
    150         -0.074547   1.000000
    151         -0.053663   1.000000
    152         -0.005727   1.000000
    153          0.024096   1.000000
    154          0.043975   1.000000
    155          0.078087   1.000000
    156          0.094271   1.000000
    157          0.116396   1.000000
    158          0.140740   1.000000
    159          0.173106   1.000000
    160          0.185801   1.000000
    161          0.188637   1.000000
    162          0.217502   1.000000
    163          0.233160   1.000000
    164          0.241353   1.000000
    165          0.273679   1.000000
    166          0.329605   1.000002
    167          0.347003   1.000006
    168          0.359761   1.000013
    169          0.391371   1.000086
    170          0.411824   1.000260
    171          0.434369   1.000788
    172          0.438996   1.000975
    173          0.446923   1.001390
    174          0.461493   1.002562
    175          0.477362   1.004705
    176          0.480707   1.005306
    177          0.507354   1.012429
    178          0.550257   1.030807
    179          0.573145   1.035330
    180          0.598126   1.018677
    181          0.619424   0.971100
    182          0.661818   0.748741
    183          0.672236   0.669986
    184          0.691240   0.513176
    185          0.698596   0.451018
    186          0.715722   0.311532
    187          0.727827   0.222756
    188          0.758429   0.056310
    189          0.805240  -0.033687
    190          0.852196  -0.023344
    191          0.962182  -0.000466
    192          1.043540  -0.000004
    193          1.377190  -0.000000
    194          1.520393  -0.000000
    195          1.561348  -0.000000
    196          1.629371  -0.000000
    197          1.723161  -0.000000
    198          1.873465  -0.000000
    199          2.073123  -0.000000
    200          2.125726  -0.000000
    201          2.276927  -0.000000
    202          2.581254  -0.000000
    203          3.024791   0.000000
    204          3.266478   0.000000
    205          3.356629   0.000000
    206          3.427178   0.000000
    207          3.523251   0.000000
    208          3.775713   0.000000
    209          3.973634   0.000000
    210          4.133134   0.000000
    211          4.361540   0.000000
    212          4.696229   0.000000
    213          4.767673   0.000000
    214          5.039095   0.000000
    215          5.230673   0.000000
    216          5.369864   0.000000
    217          5.483124   0.000000
    218          5.749804   0.000000
    219          5.907429   0.000000
    220          5.962008   0.000000
