       N       E                     dE             d eps       ncg     rms          rms(c)
DAV:   1     0.211589854926E+04    0.21159E+04   -0.14733E+05   880   0.119E+03
DAV:   2    -0.623251451203E+02   -0.21782E+04   -0.20374E+04   984   0.282E+02
DAV:   3    -0.191463773812E+03   -0.12914E+03   -0.11502E+03  1032   0.610E+01
DAV:   4    -0.196620181389E+03   -0.51564E+01   -0.49861E+01  1040   0.119E+01
DAV:   5    -0.196793386988E+03   -0.17321E+00   -0.17293E+00  1104   0.229E+00    0.383E+01
RMM:   6    -0.190245395270E+03    0.65480E+01   -0.26701E+01   899   0.122E+01    0.235E+01
RMM:   7    -0.285735800947E+03   -0.95490E+02   -0.58623E+01  1101   0.115E+01    0.652E+01
RMM:   8    -0.204115258851E+03    0.81621E+02   -0.31341E+01   975   0.998E+00    0.341E+01
RMM:   9    -0.189696108118E+03    0.14419E+02   -0.13507E+01   942   0.765E+00    0.131E+01
RMM:  10    -0.189010299346E+03    0.68581E+00   -0.69407E+00   932   0.519E+00    0.116E+01
RMM:  11    -0.188277352860E+03    0.73295E+00   -0.21902E+00   922   0.315E+00    0.743E+00
RMM:  12    -0.188420630761E+03   -0.14328E+00   -0.12433E+00   945   0.218E+00    0.828E+00
RMM:  13    -0.188032151228E+03    0.38848E+00   -0.55373E-01   928   0.158E+00    0.499E+00
RMM:  14    -0.187811821101E+03    0.22033E+00   -0.20494E-01   927   0.967E-01    0.230E+00
RMM:  15    -0.187778447754E+03    0.33373E-01   -0.92242E-02   936   0.587E-01    0.177E+00
RMM:  16    -0.187760010876E+03    0.18437E-01   -0.26300E-02   950   0.318E-01    0.109E+00
RMM:  17    -0.187763555186E+03   -0.35443E-02   -0.17669E-02   950   0.253E-01    0.130E+00
RMM:  18    -0.187753877634E+03    0.96776E-02   -0.16751E-02   972   0.252E-01    0.784E-01
RMM:  19    -0.187748416315E+03    0.54613E-02   -0.10628E-02   951   0.210E-01    0.414E-01
RMM:  20    -0.187747409928E+03    0.10064E-02   -0.37308E-03   929   0.116E-01    0.259E-01
RMM:  21    -0.187746856060E+03    0.55387E-03   -0.16564E-03   948   0.782E-02    0.220E-01
RMM:  22    -0.187746639593E+03    0.21647E-03   -0.96894E-04   951   0.563E-02    0.201E-01
RMM:  23    -0.187746286066E+03    0.35353E-03   -0.94911E-04   965   0.513E-02    0.175E-01
RMM:  24    -0.187746053275E+03    0.23279E-03   -0.32192E-04   675   0.351E-02    0.857E-02
RMM:  25    -0.187746249641E+03   -0.19637E-03   -0.22646E-04   580   0.281E-02    0.901E-02
RMM:  26    -0.187746308686E+03   -0.59045E-04   -0.15254E-04   551   0.232E-02
   1 F= -.18774631E+03 E0= -.18772036E+03  d E =-.778371E-01
