 vasp.6.4.3 19Mar24 (build Oct  2 2024 09:01:45) complex                         
 executed on             LinuxGNU date 2025.02.22  13:37:38
 running   48 mpi-ranks, with    1 threads/rank, on    1 nodes
 distrk:  each k-point on   48 cores,    1 groups
 distr:  one band on NCORE=  24 cores,    2 groups


--------------------------------------------------------------------------------------------------------


 INCAR:
   ENCUT = 400.000000
   SIGMA = 0.100000
   EDIFF = 1.00e-04
   EDIFFG = -3.00e-02
   ALGO = Fast
   GGA = PE
   PREC = Accurate
   IBRION = -1
   ICHARG = 2
   IDIPOL = 3
   ISMEAR = 1
   ISYM = 0
   NPAR = 2
   LCHARG = .FALSE.
   LDIPOL = .TRUE.
   LWAVE = .FALSE.
   LREAL = Auto

 POTCAR:    PAW_PBE Pd 04Jan2005                  
 POTCAR:    PAW_PBE H 15Jun2001                   
 POTCAR:    PAW_PBE S 06Sep2000                   
 POTCAR:    PAW_PBE Pd 04Jan2005                  
   SHA256 =  dd6f6f02930356371984e2b707ff5e456046761dc76b07c1eba30abd15eb3c39 Pd/POTCAR             
   COPYR  = (c) Copyright 04Jan2005 Georg Kresse                                                    
   COPYR  = This file is part of the software VASP. Any use, copying, and all other rights are regul
   COPYR  = If you do not have a valid VASP license, you may not use, copy or distribute this file. 
   VRHFIN =Pd : s1 d9                                                                               
   LEXCH  = PE                                                                                      
   EATOM  =   809.7530 eV,   59.5152 Ry                                                             
                                                                                                    
   TITEL  = PAW_PBE Pd 04Jan2005                                                                    
   LULTRA =        F    use ultrasoft PP ?                                                          
   IUNSCR =        1    unscreen: 0-lin 1-nonlin 2-no                                               
   RPACOR =    2.000    partial core radius                                                         
   POMASS =  106.420; ZVAL   =   10.000    mass and valenz                                          
   RCORE  =    2.600    outmost cutoff radius                                                       
   RWIGS  =    2.710; RWIGS  =    1.434    wigner-seitz radius (au A)                               
   ENMAX  =  250.925; ENMIN  =  188.194 eV                                                          
   ICORE  =        3    local potential                                                             
   LCOR   =        T    correct aug charges                                                         
   LPAW   =        T    paw PP                                                                      
   EAUG   =  416.230                                                                                
   DEXC   =    0.000                                                                                
   RMAX   =    2.653    core radius for proj-oper                                                   
   RAUG   =    1.300    factor for augmentation sphere                                              
   RDEP   =    2.734    radius for radial grids                                                     
   RDEPT  =    2.103    core radius for aug-charge                                                  
                                                                                                    
   Atomic configuration                                                                             
   12 entries                                                                                       
     n  l   j            E        occ.                                                              
     1  0  0.50    -24164.6631   2.0000                                                             
     2  0  0.50     -3530.9218   2.0000                                                             
     2  1  1.50     -3165.6822   6.0000                                                             
     3  0  0.50      -639.4577   2.0000                                                             
     3  1  1.50      -519.4532   6.0000                                                             
     3  2  2.50      -328.9757  10.0000                                                             
     4  0  0.50       -88.7014   2.0000                                                             
     4  1  1.50       -54.4540   6.0000                                                             
     4  2  2.50        -6.6878   9.0000                                                             
     5  0  0.50        -4.3543   1.0000                                                             
     5  1  0.50        -1.3606   0.0000                                                             
     4  3  2.50        -1.3606   0.0000                                                             
   Description                                                                                      
     l       E           TYP  RCUT    TYP  RCUT                                                     
     2     -6.6878251     23  2.400                                                                 
     2     -8.0484077     23  2.400                                                                 
     0     -4.3542939     23  2.400                                                                 
     0      4.3406793     23  2.400                                                                 
     1     -4.0817478     23  2.600                                                                 
     1     15.8380318     23  2.600                                                                 
     3     -4.0817478     23  2.400                                                                 
  local pseudopotential read in
  partial core-charges read in
  partial kinetic energy density read in
  atomic valenz-charges read in
  non local Contribution for L=           2  read in
    real space projection operators read in
  non local Contribution for L=           2  read in
    real space projection operators read in
  non local Contribution for L=           0  read in
    real space projection operators read in
  non local Contribution for L=           0  read in
    real space projection operators read in
  non local Contribution for L=           1  read in
    real space projection operators read in
  non local Contribution for L=           1  read in
    real space projection operators read in
    PAW grid and wavefunctions read in

   number of l-projection  operators is LMAX  =           6
   number of lm-projection operators is LMMAX =          18

 POTCAR:    PAW_PBE H 15Jun2001                   
   SHA256 =  030f79b5d3ab3cf0e668861823c8fb652ff669f3e15e46930bd03bfd63a607b6 H/POTCAR              
   COPYR  = (c) Copyright 15Jun2001 Georg Kresse                                                    
   COPYR  = This file is part of the software VASP. Any use, copying, and all other rights are regul
   COPYR  = If you do not have a valid VASP license, you may not use, copy or distribute this file. 
   VRHFIN =H: ultrasoft test                                                                        
   LEXCH  = PE                                                                                      
   EATOM  =    12.4884 eV,    0.9179 Ry                                                             
                                                                                                    
   TITEL  = PAW_PBE H 15Jun2001                                                                     
   LULTRA =        F    use ultrasoft PP ?                                                          
   IUNSCR =        0    unscreen: 0-lin 1-nonlin 2-no                                               
   RPACOR =    0.000    partial core radius                                                         
   POMASS =    1.000; ZVAL   =    1.000    mass and valenz                                          
   RCORE  =    1.100    outmost cutoff radius                                                       
   RWIGS  =    0.700; RWIGS  =    0.370    wigner-seitz radius (au A)                               
   ENMAX  =  250.000; ENMIN  =  200.000 eV                                                          
   RCLOC  =    0.701    cutoff for local pot                                                        
   LCOR   =        T    correct aug charges                                                         
   LPAW   =        T    paw PP                                                                      
   EAUG   =  400.000                                                                                
   RMAX   =    1.123    core radius for proj-oper                                                   
   RAUG   =    1.200    factor for augmentation sphere                                              
   RDEP   =    1.112    radius for radial grids                                                     
   RDEPT  =    0.926    core radius for aug-charge                                                  
                                                                                                    
   Atomic configuration                                                                             
    2 entries                                                                                       
     n  l   j            E        occ.                                                              
     1  0  0.50        -6.4927   1.0000                                                             
     2  1  0.50        -3.4015   0.0000                                                             
   Description                                                                                      
     l       E           TYP  RCUT    TYP  RCUT                                                     
     0     -6.4927494     23  1.100                                                                 
     0      6.8029130     23  1.100                                                                 
     1     -4.0817478     23  1.100                                                                 
  local pseudopotential read in
  atomic valenz-charges read in
  non local Contribution for L=           0  read in
    real space projection operators read in
  non local Contribution for L=           0  read in
    real space projection operators read in
  non local Contribution for L=           1  read in
    real space projection operators read in
    PAW grid and wavefunctions read in

   number of l-projection  operators is LMAX  =           3
   number of lm-projection operators is LMMAX =           5

 POTCAR:    PAW_PBE S 06Sep2000                   
   SHA256 =  0fc7481fb0695f01bdc6462160264c5c84044ae9ec85a907d398b887a2bc3132 S/POTCAR              
   COPYR  = (c) Copyright 06Sep2000 Georg Kresse                                                    
   COPYR  = This file is part of the software VASP. Any use, copying, and all other rights are regul
   COPYR  = If you do not have a valid VASP license, you may not use, copy or distribute this file. 
   VRHFIN =S : s2p4                                                                                 
   LEXCH  = PE                                                                                      
   EATOM  =   276.8230 eV,   20.3459 Ry                                                             
                                                                                                    
   TITEL  = PAW_PBE S 06Sep2000                                                                     
   LULTRA =        F    use ultrasoft PP ?                                                          
   IUNSCR =        1    unscreen: 0-lin 1-nonlin 2-no                                               
   RPACOR =    1.500    partial core radius                                                         
   POMASS =   32.066; ZVAL   =    6.000    mass and valenz                                          
   RCORE  =    1.900    outmost cutoff radius                                                       
   RWIGS  =    2.200; RWIGS  =    1.164    wigner-seitz radius (au A)                               
   ENMAX  =  258.689; ENMIN  =  194.016 eV                                                          
   ICORE  =        2    local potential                                                             
   LCOR   =        T    correct aug charges                                                         
   LPAW   =        T    paw PP                                                                      
   EAUG   =  335.092                                                                                
   DEXC   =    0.000                                                                                
   RMAX   =    1.942    core radius for proj-oper                                                   
   RAUG   =    1.300    factor for augmentation sphere                                              
   RDEP   =    1.954    radius for radial grids                                                     
   RDEPT  =    1.744    core radius for aug-charge                                                  
                                                                                                    
   Atomic configuration                                                                             
    6 entries                                                                                       
     n  l   j            E        occ.                                                              
     1  0  0.50     -2405.8406   2.0000                                                             
     2  0  0.50      -211.7007   2.0000                                                             
     2  1  1.50      -156.4958   6.0000                                                             
     3  0  0.50       -17.2562   2.0000                                                             
     3  1  0.50        -7.0085   4.0000                                                             
     3  2  1.50        -6.8029   0.0000                                                             
   Description                                                                                      
     l       E           TYP  RCUT    TYP  RCUT                                                     
     0    -17.2561641     23  1.900                                                                 
     0    -15.8743224     23  1.900                                                                 
     1     -7.0085400     23  1.900                                                                 
     1     -2.7779785     23  1.900                                                                 
     2     -6.8029130     23  1.900                                                                 
  local pseudopotential read in
  partial core-charges read in
  partial kinetic energy density read in
  atomic valenz-charges read in
  non local Contribution for L=           0  read in
    real space projection operators read in
  non local Contribution for L=           0  read in
    real space projection operators read in
  non local Contribution for L=           1  read in
    real space projection operators read in
  non local Contribution for L=           1  read in
    real space projection operators read in
    PAW grid and wavefunctions read in

   number of l-projection  operators is LMAX  =           4
   number of lm-projection operators is LMMAX =           8

 Optimization of the real space projectors (new method)

 maximal supplied QI-value         = 14.36
 optimisation between [QCUT,QGAM] = [ 10.20, 20.39] = [ 29.12,116.47] Ry 
 Optimized for a Real-space Cutoff    1.55 Angstroem

   l    n(q)    QCUT    max X(q) W(low)/X(q) W(high)/X(q)  e(spline) 
   2      9    10.197    59.108    0.12E-03    0.40E-04    0.11E-06
   2      9    10.197    58.101    0.12E-03    0.39E-04    0.12E-06
   0      9    10.197   102.235    0.41E-04    0.86E-05    0.83E-07
   0      9    10.197    58.388    0.37E-04    0.79E-05    0.78E-07
   1      9    10.197    22.191    0.25E-03    0.13E-03    0.84E-07
   1      9    10.197    15.590    0.21E-03    0.11E-03    0.74E-07
 Optimization of the real space projectors (new method)

 maximal supplied QI-value         = 34.20
 optimisation between [QCUT,QGAM] = [  9.92, 20.18] = [ 27.55,114.04] Ry 
 Optimized for a Real-space Cutoff    1.34 Angstroem

   l    n(q)    QCUT    max X(q) W(low)/X(q) W(high)/X(q)  e(spline) 
   0      8     9.919    19.460    0.16E-03    0.20E-03    0.36E-06
   0      8     9.919    12.209    0.16E-03    0.20E-03    0.35E-06
   1      8     9.919     4.655    0.19E-03    0.46E-03    0.40E-06
 Optimization of the real space projectors (new method)

 maximal supplied QI-value         = 19.84
 optimisation between [QCUT,QGAM] = [ 10.12, 20.44] = [ 28.68,116.96] Ry 
 Optimized for a Real-space Cutoff    1.42 Angstroem

   l    n(q)    QCUT    max X(q) W(low)/X(q) W(high)/X(q)  e(spline) 
   0      9    10.119   187.594    0.52E-04    0.93E-04    0.64E-07
   0      9    10.119   164.243    0.51E-04    0.92E-04    0.63E-07
   1      8    10.119    67.533    0.16E-03    0.17E-03    0.23E-06
   1      8    10.119    50.729    0.16E-03    0.16E-03    0.23E-06
  PAW_PBE Pd 04Jan2005                  :
 energy of atom  1       EATOM= -809.7530
 kinetic energy error for atom=    0.0091 (will be added to EATOM!!)
  PAW_PBE H 15Jun2001                   :
 energy of atom  2       EATOM=  -12.4884
 kinetic energy error for atom=    0.0098 (will be added to EATOM!!)
  PAW_PBE S 06Sep2000                   :
 energy of atom  3       EATOM= -276.8230
 kinetic energy error for atom=    0.0046 (will be added to EATOM!!)


 POSCAR: Pd H  S
  positions in cartesian coordinates
  No initial velocities read in


 exchange-correlation table for PE
   RHO(1)=    0.500       N(1)  =     2000
   RHO(2)=  100.500       N(2)  =     4000



--------------------------------------------------------------------------------------------------------


 ion  position               nearest neighbor table
   1  0.167  0.167  0.000-   3 2.79   7 2.79   4 2.79   2 2.79  10 2.79  11 2.79  13 2.79  14 2.79

   2  0.500  0.167  0.000-   8 2.79   3 2.79   5 2.79   1 2.79  11 2.79  12 2.79  14 2.79  15 2.79

   3  0.833  0.167  0.000-   1 2.79   9 2.79   6 2.79   2 2.79  10 2.79  12 2.79  13 2.79  15 2.79

   4  0.167  0.500  0.000-   6 2.79   5 2.79   1 2.79   7 2.79  13 2.79  16 2.79  14 2.79  17 2.79

   5  0.500  0.500  0.000-   2 2.79   4 2.79   6 2.79   8 2.79  14 2.79  15 2.79  17 2.79  18 2.79

   6  0.833  0.500  0.000-   4 2.79   3 2.79   5 2.79   9 2.79  13 2.79  16 2.79  15 2.79  18 2.79

   7  0.167  0.833  0.000-   1 2.79   9 2.79   8 2.79   4 2.79  10 2.79  11 2.79  16 2.79  17 2.79

   8  0.500  0.833  0.000-   2 2.79   5 2.79   7 2.79   9 2.79  11 2.79  12 2.79  17 2.79  18 2.79

   9  0.833  0.833  0.000-   3 2.79   7 2.79   6 2.79   8 2.79  10 2.79  12 2.79  16 2.79  18 2.79

  10  0.000  0.000  0.099-  25 2.76  27 2.77  13 2.79  16 2.79  11 2.79  12 2.79   7 2.79   9 2.79
                             1 2.79   3 2.79  21 2.79  19 2.79
  11  0.333  0.000  0.099-  25 2.76  26 2.77  12 2.79  17 2.79  10 2.79  14 2.79   2 2.79   8 2.79
                             7 2.79   1 2.79  19 2.79  20 2.79
  12  0.667  0.000  0.099-  27 2.76  26 2.76  11 2.79  18 2.79  10 2.79  15 2.79   2 2.79   8 2.79
                             3 2.79   9 2.79  20 2.80  21 2.80
  13  0.000  0.333  0.099-  24 2.77  21 2.78  22 2.78  19 2.78  16 2.79  15 2.79  10 2.79  14 2.79
                             4 2.79   6 2.79   1 2.79   3 2.79
  14  0.333  0.333  0.099-  23 2.77  20 2.77  22 2.78  19 2.78  15 2.79  17 2.79  11 2.79  13 2.79
                             5 2.79   4 2.79   2 2.79   1 2.79
  15  0.667  0.333  0.099-  24 2.77  23 2.78  20 2.78  21 2.79  14 2.79  18 2.79  12 2.79  13 2.79
                             5 2.79   2 2.79   6 2.79   3 2.79
  16  0.000  0.667  0.099-  25 2.76  27 2.77  24 2.78  13 2.79  10 2.79  17 2.79  18 2.79   6 2.79
                             4 2.79   9 2.79   7 2.79  22 2.80
  17  0.333  0.667  0.099-  25 2.76  26 2.77  23 2.78  18 2.79  14 2.79  11 2.79  16 2.79   5 2.79
                             8 2.79   4 2.79   7 2.79  22 2.80
  18  0.667  0.667  0.099-  27 2.76  26 2.77  15 2.79  17 2.79  16 2.79  12 2.79   5 2.79   6 2.79
                             8 2.79   9 2.79  24 2.79  23 2.79
  19  0.167  0.168  0.198-  22 2.76  29 2.77  28 2.78  21 2.78  20 2.78  14 2.78  13 2.78  11 2.79
                            10 2.79  25 2.80  31 2.87  32 2.87
  20  0.500  0.169  0.198-  23 2.75  14 2.77  15 2.78  29 2.78  19 2.78  11 2.79  30 2.79  12 2.80
                            32 2.80  21 2.80  26 2.80  33 2.80
  21  0.834  0.168  0.198-  24 2.76  13 2.78  19 2.78  28 2.78  15 2.79  10 2.79  31 2.79  30 2.79
                            27 2.79  12 2.80  20 2.80  33 2.81
  22  0.167  0.498  0.198-  19 2.76  35 2.77  34 2.77  23 2.78  14 2.78  13 2.78  24 2.79  17 2.80
                            16 2.80  25 2.80  31 2.85  32 2.87
  23  0.499  0.498  0.198-  20 2.75  14 2.77  36 2.77  35 2.77  15 2.78  22 2.78  17 2.78  18 2.79
                            24 2.79  32 2.80  26 2.80  33 2.80
  24  0.834  0.498  0.197-  21 2.76  13 2.77  15 2.77  34 2.77  36 2.78  16 2.78  22 2.79  18 2.79
                            31 2.79  23 2.79  33 2.80  27 2.81
  25  0.167  0.833  0.196-  11 2.76  10 2.76  17 2.76  16 2.76  29 2.77  28 2.77  34 2.77  35 2.77
                            26 2.79  27 2.79  19 2.80  22 2.80
  26  0.500  0.834  0.196-  12 2.76  29 2.76  18 2.77  11 2.77  35 2.77  17 2.77  36 2.77  27 2.78
                            30 2.79  25 2.79  20 2.80  23 2.80
  27  0.833  0.834  0.196-  12 2.76  34 2.76  18 2.76  10 2.77  16 2.77  28 2.77  36 2.77  26 2.78
                            30 2.79  25 2.79  21 2.79  24 2.81
  28  0.001  0.996  0.295-  34 2.74  25 2.77  27 2.77  29 2.78  19 2.78  21 2.78  30 2.79  31 2.83

  29  0.333  0.997  0.295-  35 2.74  26 2.76  25 2.77  19 2.77  28 2.78  20 2.78  30 2.79  32 2.82

  30  0.667  0.999  0.296-  37 1.71  36 2.77  26 2.79  29 2.79  27 2.79  21 2.79  28 2.79  20 2.79
                            33 2.80
  31  0.991  0.335  0.300-  39 2.28  33 2.71  24 2.79  21 2.79  34 2.80  28 2.83  22 2.85  19 2.87
                            32 2.94
  32  0.343  0.334  0.301-  39 2.28  33 2.71  20 2.80  23 2.80  35 2.81  29 2.82  22 2.87  19 2.87
                            31 2.94
  33  0.667  0.334  0.298-  37 1.71  31 2.71  32 2.71  36 2.79  24 2.80  30 2.80  20 2.80  23 2.80
                            21 2.81
  34  0.999  0.669  0.294-  28 2.74  27 2.76  25 2.77  22 2.77  24 2.77  36 2.78  31 2.80  35 2.80

  35  0.334  0.669  0.295-  29 2.74  26 2.77  22 2.77  25 2.77  23 2.77  36 2.78  34 2.80  32 2.81

  36  0.667  0.667  0.295-  30 2.77  26 2.77  23 2.77  27 2.77  34 2.78  24 2.78  35 2.78  33 2.79

  37  0.666  0.165  0.346-  30 1.71  33 1.71
  38  0.169  0.506  0.400-  39 1.37
  39  0.166  0.344  0.388-  38 1.37  32 2.28  31 2.28


IMPORTANT INFORMATION: All symmetrisations will be switched off!
NOSYMM: (Re-)initialisation of all symmetry stuff for point group C_1.


----------------------------------------------------------------------------------------

                                     Primitive cell                                     

  volume of cell :    1390.8369

  direct lattice vectors                    reciprocal lattice vectors
     8.358002154  0.000000000  0.000000000     0.119645817  0.000000000  0.000000000
     0.000000000  8.358002154  0.000000000     0.000000000  0.119645817  0.000000000
     0.000000000  0.000000000 19.910000000     0.000000000  0.000000000  0.050226017

  length of vectors
     8.358002154  8.358002154 19.910000000     0.119645817  0.119645817  0.050226017

  position of ions in fractional coordinates (direct lattice)
     0.166666667  0.166666667  0.000000000
     0.500000000  0.166666667  0.000000000
     0.833333333  0.166666667  0.000000000
     0.166666667  0.500000000  0.000000000
     0.500000000  0.500000000  0.000000000
     0.833333333  0.500000000  0.000000000
     0.166666667  0.833333333  0.000000000
     0.500000000  0.833333333  0.000000000
     0.833333333  0.833333333  0.000000000
     0.000000000  0.000000000  0.098945254
     0.333333333  0.000000000  0.098945254
     0.666666667  0.000000000  0.098945254
     0.000000000  0.333333333  0.098945254
     0.333333333  0.333333333  0.098945254
     0.666666667  0.333333333  0.098945254
     0.000000000  0.666666667  0.098945254
     0.333333333  0.666666667  0.098945254
     0.666666667  0.666666667  0.098945254
     0.166889586  0.167791487  0.198025750
     0.499675071  0.168783595  0.197814156
     0.834333425  0.168003715  0.197945155
     0.166922461  0.498202850  0.198141309
     0.499338314  0.498363189  0.197519874
     0.833609445  0.497875227  0.197225975
     0.166672721  0.833372120  0.196147796
     0.500460391  0.833791392  0.196494301
     0.832804027  0.833695507  0.196350220
     0.000763257  0.996186553  0.295064029
     0.332969156  0.996820439  0.294748430
     0.666717965  0.998759698  0.296228098
     0.991440542  0.334613604  0.299940632
     0.342611354  0.333777929  0.300647312
     0.667069783  0.334191057  0.298206506
     0.998787790  0.668954244  0.294453491
     0.333730510  0.669010810  0.294762130
     0.666624901  0.667328294  0.294608979
     0.665791798  0.164795782  0.346290266
     0.169073746  0.505557882  0.399514838
     0.166117836  0.343745420  0.388078665

  ion indices of the primitive-cell ions
   primitive index   ion index
                 1           1
                 2           2
                 3           3
                 4           4
                 5           5
                 6           6
                 7           7
                 8           8
                 9           9
                10          10
                11          11
                12          12
                13          13
                14          14
                15          15
                16          16
                17          17
                18          18
                19          19
                20          20
                21          21
                22          22
                23          23
                24          24
                25          25
                26          26
                27          27
                28          28
                29          29
                30          30
                31          31
                32          32
                33          33
                34          34
                35          35
                36          36
                37          37
                38          38
                39          39

----------------------------------------------------------------------------------------



 KPOINTS: KPOINTS created by Atomic Simulation Env

Automatic generation of k-mesh.
 Grid dimensions read from file:
 generate k-points for:    2    2    1

 Generating k-lattice:

  Cartesian coordinates                     Fractional coordinates (reciprocal lattice)
     0.059822909  0.000000000  0.000000000     0.500000000  0.000000000  0.000000000
     0.000000000  0.059822909  0.000000000     0.000000000  0.500000000  0.000000000
     0.000000000  0.000000000  0.050226017     0.000000000  0.000000000  1.000000000

  Length of vectors
     0.059822909  0.059822909  0.050226017

  Shift w.r.t. Gamma in fractional coordinates (k-lattice)
     0.500000000  0.500000000  0.000000000

 
 Subroutine IBZKPT returns following result:
 ===========================================
 
 Found      2 irreducible k-points:
 
 Following reciprocal coordinates:
            Coordinates               Weight
  0.250000  0.250000  0.000000      2.000000
 -0.250000  0.250000  0.000000      2.000000
 
 Following cartesian coordinates:
            Coordinates               Weight
  0.029911  0.029911  0.000000      2.000000
 -0.029911  0.029911  0.000000      2.000000
 


--------------------------------------------------------------------------------------------------------




 Dimension of arrays:
   k-points           NKPTS =      2   k-points in BZ     NKDIM =      2   number of bands    NBANDS=    220
   number of dos      NEDOS =    301   number of ions     NIONS =     39
   non local maximal  LDIM  =      6   non local SUM 2l+1 LMDIM =     18
   total plane-waves  NPLWV = 439040
   max r-space proj   IRMAX =   5010   max aug-charges    IRDMAX=  15510
   dimension x,y,z NGX =    56 NGY =   56 NGZ =  140
   dimension x,y,z NGXF=   112 NGYF=  112 NGZF=  280
   support grid    NGXF=   112 NGYF=  112 NGZF=  280
   ions per type =              36   2   1
   NGX,Y,Z   is equivalent  to a cutoff of  11.14, 11.14, 11.69 a.u.
   NGXF,Y,Z  is equivalent  to a cutoff of  22.28, 22.28, 23.38 a.u.

 SYSTEM =  unknown system                          
 POSCAR =  Pd H  S                                 

 Startparameter for this run:
   NWRITE =      2    write-flag & timer
   PREC   = accura    normal or accurate (medium, high low for compatibility)
   ISTART =      0    job   : 0-new  1-cont  2-samecut
   ICHARG =      2    charge: 1-file 2-atom 10-const
   ISPIN  =      1    spin polarized calculation?
   LNONCOLLINEAR =      F non collinear calculations
   LSORBIT =      F    spin-orbit coupling
   INIWAV =      1    electr: 0-lowe 1-rand  2-diag
   LASPH  =      F    aspherical Exc in radial PAW
 Electronic Relaxation 1
   ENCUT  =  400.0 eV  29.40 Ry    5.42 a.u.  13.63 13.63 32.47*2*pi/ulx,y,z
   ENINI  =  400.0     initial cutoff
   ENAUG  =  416.2 eV  augmentation charge cutoff
   NELM   =     60;   NELMIN=  2; NELMDL= -5     # of ELM steps 
   EDIFF  = 0.1E-03   stopping-criterion for ELM
   LREAL  =      T    real-space projection
   NLSPLINE    = F    spline interpolate recip. space projectors
   LCOMPAT=      F    compatible to vasp.4.4
   GGA_COMPAT  = T    GGA compatible to vasp.4.4-vasp.4.6
   LMAXPAW     = -100 max onsite density
   LMAXMIX     =    2 max onsite mixed and CHGCAR
   VOSKOWN=      0    Vosko Wilk Nusair interpolation
   ROPT   =   -0.00025  -0.00025  -0.00025
 Ionic relaxation
   EDIFFG = -.3E-01   stopping-criterion for IOM
   NSW    =      0    number of steps for IOM
   NBLOCK =      1;   KBLOCK =      1    inner block; outer block 
   IBRION =     -1    ionic relax: 0-MD 1-quasi-New 2-CG
   NFREE  =      0    steps in history (QN), initial steepest desc. (CG)
   ISIF   =      2    stress and relaxation
   IWAVPR =     10    prediction:  0-non 1-charg 2-wave 3-comb
   ISYM   =      0    0-nonsym 1-usesym 2-fastsym
   LCORR  =      T    Harris-Foulkes like correction to forces

   POTIM  = 0.5000    time-step for ionic-motion
   TEIN   =    0.0    initial temperature
   TEBEG  =    0.0;   TEEND  =   0.0 temperature during run
   SMASS  =  -3.00    Nose mass-parameter (am)
   estimated Nose-frequenzy (Omega)   =  0.10E-29 period in steps = 0.13E+47 mass=  -0.160E-26a.u.
   SCALEE = 1.0000    scale energy and forces
   NPACO  =    256;   APACO  = 10.0  distance and # of slots for P.C.
   PSTRESS=    0.0 pullay stress

  Mass of Ions in am
   POMASS = 106.42  1.00 32.07
  Ionic Valenz
   ZVAL   =  10.00  1.00  6.00
  Atomic Wigner-Seitz radii
   RWIGS  =  -1.00 -1.00 -1.00
  virtual crystal weights 
   VCA    =   1.00  1.00  1.00
   NELECT =     368.0000    total number of electrons
   NUPDOWN=      -1.0000    fix difference up-down

 DOS related values:
   EMIN   =  10.00;   EMAX   =-10.00  energy-range for DOS
   EFERMI =   0.00;   METHOD = LEGACY      
   ISMEAR =     1;   SIGMA  =   0.10  broadening in eV -4-tet -1-fermi 0-gaus

 Electronic relaxation 2 (details)
   IALGO  =     68    algorithm
   LDIAG  =      T    sub-space diagonalisation (order eigenvalues)
   LSUBROT=      F    optimize rotation matrix (better conditioning)
   TURBO    =      0    0=normal 1=particle mesh
   IRESTART =      0    0=no restart 2=restart with 2 vectors
   NREBOOT  =      0    no. of reboots
   NMIN     =      0    reboot dimension
   EREF     =   0.00    reference energy to select bands
   IMIX   =      4    mixing-type and parameters
     AMIX     =   0.40;   BMIX     =  1.00
     AMIX_MAG =   1.60;   BMIX_MAG =  1.00
     AMIN     =   0.10
     WC   =   100.;   INIMIX=   1;  MIXPRE=   1;  MAXMIX= -45

 Intra band minimization:
   WEIMIN = 0.0000     energy-eigenvalue tresh-hold
   EBREAK =  0.11E-06  absolut break condition
   DEPER  =   0.30     relativ break condition  

   TIME   =   0.40     timestep for ELM

  volume/ion in A,a.u.               =      35.66       240.66
  Fermi-wavevector in a.u.,A,eV,Ry     =   1.050990  1.986084 15.028731  1.104581
  Thomas-Fermi vector in A             =   2.186016

 Write flags
   LWAVE        =      F    write WAVECAR
   LDOWNSAMPLE  =      F    k-point downsampling of WAVECAR
   LCHARG       =      F    write CHGCAR
   LVTOT        =      F    write LOCPOT, total local potential
   LVHAR        =      F    write LOCPOT, Hartree potential only
   WRT_POTENTIAL= false  ! write potential to hdf5 file
   LELF         =      F    write electronic localiz. function (ELF)
   LORBIT       =      0    0 simple, 1 ext, 2 COOP (PROOUT), +10 PAW based schemes


 Dipole corrections
   LMONO      =      F    monopole corrections only (constant potential shift)
   LDIPOL     =      T    correct potential (dipole corrections)
   IDIPOL     =      3    1-x, 2-y, 3-z, 4-all directions 
   EPSILON    =  1.0000000 bulk dielectric constant
   LVACPOTAV  =      F  vacuum potentials using an averaging scheme for the charge density
   VACPOTFLAT =  0.1000000 required flatness to determine vacuum potential
 Exchange correlation treatment:
   GGA     = PE    functional components
   XC_C    = 1    coefficients multiplying the functional components
   LIBXC   =     F    Libxc                    
   VOSKOWN =     0    Vosko Wilk Nusair interpolation
   LHFCALC =     F    Hartree Fock is set to
   LHFONE  =     F    Hartree Fock one center treatment
   AEXX    =    0.0000 exact exchange contribution

 Parameters of functionals:
   PE:
     No parameter

 Van der Waals corrections
   IVDW    =     0    specifies the selected vdW correction

 Linear response parameters
   LEPSILON=     F    determine dielectric tensor
   LRPA    =     F    only Hartree local field effects (RPA)
   LNABLA  =     F    use nabla operator in PAW spheres
   LVEL    =     F    velocity operator in full k-point grid
   CSHIFT  =0.1000    complex shift for real part using Kramers Kronig
   OMEGAMAX=  -1.0    maximum frequency
   DEG_THRESHOLD= 0.2000000E-02 threshold for treating states as degnerate
   RTIME   =   -0.100 relaxation time in fs
  (WPLASMAI=    0.000 imaginary part of plasma frequency in eV, 0.658/RTIME)
   DFIELD  = 0.0000000 0.0000000 0.0000000 field for delta impulse in time

  Optional k-point grid parameters
   LKPOINTS_OPT  =     F    use optional k-point grid
   KPOINTS_OPT_MODE=     1    mode for optional k-point grid

 Orbital magnetization related:
   ORBITALMAG=     F  switch on orbital magnetization
   LCHIMAG   =     F  perturbation theory with respect to B field
   DQ        =  0.001000  dq finite difference perturbation B field
   LLRAUG    =     F  two centre corrections for induced B field
   LBONE     =     F  B-component reconstruction in AE one-centre
   LVGVCALC  =     T  calculate vGv susceptibility
   LVGVAPPL  =     F  apply vGv susceptibility instead of pGv for G=0

 Random number generation:
   RANDOM_GENERATOR = DEFAULT
   PCG_SEED         = not used


--------------------------------------------------------------------------------------------------------


 Static calculation
 charge density and potential will be updated during run
 non-spin polarized calculation
 RMM-DIIS sequential band-by-band and
  variant of blocked Davidson during initial phase
 perform sub-space diagonalisation
    before iterative eigenvector-optimisation
 modified Broyden-mixing scheme, WC =      100.0
 initial mixing is a Kerker type mixing with AMIX =  0.4000 and BMIX =      1.0000
 Hartree-type preconditioning will be used
 using additional bands           36
 real space projection scheme for non local part
 use partial core corrections
 calculate Harris-corrections to forces   (improved forces if not selfconsistent)
 use gradient corrections 
 use of overlap-Matrix (Vanderbilt PP)
 Methfessel and Paxton  Order N= 1 SIGMA  =   0.10


--------------------------------------------------------------------------------------------------------


  energy-cutoff  :      400.00
  volume of cell :     1390.84
      direct lattice vectors                 reciprocal lattice vectors
     8.358002154  0.000000000  0.000000000     0.119645817  0.000000000  0.000000000
     0.000000000  8.358002154  0.000000000     0.000000000  0.119645817  0.000000000
     0.000000000  0.000000000 19.910000000     0.000000000  0.000000000  0.050226017

  length of vectors
     8.358002154  8.358002154 19.910000000     0.119645817  0.119645817  0.050226017



 k-points in units of 2pi/SCALE and weight: KPOINTS created by Atomic Simulation Env
   0.02991145  0.02991145  0.00000000       0.500
  -0.02991145  0.02991145  0.00000000       0.500

 k-points in reciprocal lattice and weights: KPOINTS created by Atomic Simulation Env
   0.25000000  0.25000000  0.00000000       0.500
  -0.25000000  0.25000000  0.00000000       0.500

 position of ions in fractional coordinates (direct lattice) 
   0.16666667  0.16666667  0.00000000
   0.50000000  0.16666667  0.00000000
   0.83333333  0.16666667  0.00000000
   0.16666667  0.50000000  0.00000000
   0.50000000  0.50000000  0.00000000
   0.83333333  0.50000000  0.00000000
   0.16666667  0.83333333  0.00000000
   0.50000000  0.83333333  0.00000000
   0.83333333  0.83333333  0.00000000
   0.00000000  0.00000000  0.09894525
   0.33333333  0.00000000  0.09894525
   0.66666667  0.00000000  0.09894525
   0.00000000  0.33333333  0.09894525
   0.33333333  0.33333333  0.09894525
   0.66666667  0.33333333  0.09894525
   0.00000000  0.66666667  0.09894525
   0.33333333  0.66666667  0.09894525
   0.66666667  0.66666667  0.09894525
   0.16688959  0.16779149  0.19802575
   0.49967507  0.16878359  0.19781416
   0.83433343  0.16800372  0.19794516
   0.16692246  0.49820285  0.19814131
   0.49933831  0.49836319  0.19751987
   0.83360944  0.49787523  0.19722598
   0.16667272  0.83337212  0.19614780
   0.50046039  0.83379139  0.19649430
   0.83280403  0.83369551  0.19635022
   0.00076326  0.99618655  0.29506403
   0.33296916  0.99682044  0.29474843
   0.66671796  0.99875970  0.29622810
   0.99144054  0.33461360  0.29994063
   0.34261135  0.33377793  0.30064731
   0.66706978  0.33419106  0.29820651
   0.99878779  0.66895424  0.29445349
   0.33373051  0.66901081  0.29476213
   0.66662490  0.66732829  0.29460898
   0.66579180  0.16479578  0.34629027
   0.16907375  0.50555788  0.39951484
   0.16611784  0.34374542  0.38807866

 position of ions in cartesian coordinates  (Angst):
   1.39300036  1.39300036  0.00000000
   4.17900108  1.39300036  0.00000000
   6.96500179  1.39300036  0.00000000
   1.39300036  4.17900108  0.00000000
   4.17900108  4.17900108  0.00000000
   6.96500179  4.17900108  0.00000000
   1.39300036  6.96500179  0.00000000
   4.17900108  6.96500179  0.00000000
   6.96500179  6.96500179  0.00000000
   0.00000000  0.00000000  1.97000000
   2.78600072  0.00000000  1.97000000
   5.57200144  0.00000000  1.97000000
   0.00000000  2.78600072  1.97000000
   2.78600072  2.78600072  1.97000000
   5.57200144  2.78600072  1.97000000
   0.00000000  5.57200144  1.97000000
   2.78600072  5.57200144  1.97000000
   5.57200144  5.57200144  1.97000000
   1.39486352  1.40240161  3.94269269
   4.17628532  1.41069365  3.93847984
   6.97336057  1.40417542  3.94108804
   1.39513829  4.16398049  3.94499346
   4.17347070  4.16532061  3.93262069
   6.96730953  4.16124222  3.92676917
   1.39305096  6.96532598  3.90530261
   4.18284903  6.96883025  3.91220152
   6.96057785  6.96802884  3.90933287
   0.00637931  8.32612936  5.87472483
   2.78295692  8.33142737  5.86844124
   5.57243018  8.34763570  5.89790144
   8.28646218  2.79670122  5.97181798
   2.86354644  2.78971665  5.98588798
   5.57537069  2.79316958  5.93729153
   8.34787050  5.59112102  5.86256901
   2.78932032  5.59159379  5.86871401
   5.57165235  5.57753132  5.86566476
   5.56468928  1.37736350  6.89463920
   1.41311873  4.22545387  7.95434042
   1.38841323  2.87302496  7.72664622



--------------------------------------------------------------------------------------------------------


 k-point     1 :   0.2500 0.2500 0.0000  plane waves:   25289
 k-point     2 :  -0.2500 0.2500 0.0000  plane waves:   25289

 maximum and minimum number of plane-waves per node :      1059     1047

 maximum number of plane-waves:     25289
 maximum index in each direction: 
   IXMAX=   13   IYMAX=   13   IZMAX=   32
   IXMIN=  -13   IYMIN=  -13   IZMIN=  -32


 real space projection operators:
  total allocation   :      24823.35 KBytes
  max/ min on nodes  :       1361.91        860.82


 parallel 3D FFT for wavefunctions:
    minimum data exchange during FFTs selected (reduces bandwidth)
 parallel 3D FFT for charge:
    minimum data exchange during FFTs selected (reduces bandwidth)


 total amount of memory used by VASP MPI-rank0    49449. kBytes
=======================================================================

   base      :      30000. kBytes
   nonlr-proj:       4891. kBytes
   fftplans  :       3716. kBytes
   grid      :       6996. kBytes
   one-center:         31. kBytes
   wavefun   :       3815. kBytes

     INWAV:  cpu time      0.0000: real time      0.0000
 Broyden mixing: mesh for mixing (old mesh)
   NGX = 27   NGY = 27   NGZ = 65
  (NGX  =112   NGY  =112   NGZ  =280)
  gives a total of  47385 points

 initial charge density was supplied:
 charge density of overlapping atoms calculated
 number of electron     368.0000000 magnetization 
 keeping initial charge density in first step


--------------------------------------------------------------------------------------------------------


 Maximum index for non-local projection operator          512
 Maximum index for augmentation-charges          745 (set IRDMAX)


--------------------------------------------------------------------------------------------------------


 First call to EWALD:  gamma=   0.159
 Maximum number of real-space cells 4x 4x 2
 Maximum number of reciprocal cells 2x 2x 5

    FEWALD:  cpu time      0.0015: real time      0.0015


--------------------------------------- Ionic step        1  -------------------------------------------




--------------------------------------- Iteration      1(   1)  ---------------------------------------


    POTLOK:  cpu time      0.0443: real time      0.0445
    SETDIJ:  cpu time      0.0076: real time      0.0077
     EDDAV:  cpu time      0.9461: real time      0.9524
       DOS:  cpu time      0.0005: real time      0.0005
    --------------------------------------------
      LOOP:  cpu time      0.9986: real time      1.0051

 eigenvalue-minimisations  :   880
 total energy-change (2. order) : 0.2115899E+04  (-0.1473339E+05)
 number of electron     368.0000000 magnetization 
 augmentation part      368.0000000 magnetization 

 DIPCOR: dipole corrections for dipol
 direction  3 min pos   184,
 dipolmoment           0.000000      0.000000     -0.000046 electrons x Angstroem
 Tr[quadrupol]     -4463.902888

 energy correction for charged system         0.000000 eV
 dipol+quadrupol energy correction           -0.000000 eV
 added-field ion interaction         -0.000011 eV  (added to PSCEN)


 Free energy of the ion-electron system (eV)
  ---------------------------------------------------
  alpha Z        PSCENC =       628.75263800
  Ewald energy   TEWEN  =     75968.54115270
  -Hartree energ DENC   =   -106698.93801084
  -exchange      EXHF   =         0.00000000
  -V(xc)+E(xc)   XCENC  =     -1046.07688126
  PAW double counting   =     29264.33151030   -27021.15649540
  entropy T*S    EENTRO =        -0.01875552
  eigenvalues    EBANDS =      1567.90759034
  atomic energy  EATOM  =     29452.55580095
  Solvation  Ediel_sol  =         0.00000000
  ---------------------------------------------------
  free energy    TOTEN  =      2115.89854926 eV

  energy without entropy =     2115.91730478  energy(sigma->0) =     2115.90480110


--------------------------------------------------------------------------------------------------------




--------------------------------------- Iteration      1(   2)  ---------------------------------------


     EDDAV:  cpu time      0.9536: real time      0.9598
       DOS:  cpu time      0.0004: real time      0.0004
    --------------------------------------------
      LOOP:  cpu time      0.9540: real time      0.9602

 eigenvalue-minimisations  :   984
 total energy-change (2. order) :-0.2178224E+04  (-0.2037408E+04)
 number of electron     368.0000000 magnetization 
 augmentation part      368.0000000 magnetization 

 DIPCOR: dipole corrections for dipol
 direction  3 min pos   184,
 dipolmoment           0.000000      0.000000     -0.000046 electrons x Angstroem
 Tr[quadrupol]     -4463.902888

 energy correction for charged system         0.000000 eV
 dipol+quadrupol energy correction           -0.000000 eV
 added-field ion interaction         -0.000011 eV  (added to PSCEN)


 Free energy of the ion-electron system (eV)
  ---------------------------------------------------
  alpha Z        PSCENC =       628.75263800
  Ewald energy   TEWEN  =     75968.54115270
  -Hartree energ DENC   =   -106698.93801084
  -exchange      EXHF   =         0.00000000
  -V(xc)+E(xc)   XCENC  =     -1046.07688126
  PAW double counting   =     29264.33151030   -27021.15649540
  entropy T*S    EENTRO =         0.00355963
  eigenvalues    EBANDS =      -610.33841919
  atomic energy  EATOM  =     29452.55580095
  Solvation  Ediel_sol  =         0.00000000
  ---------------------------------------------------
  free energy    TOTEN  =       -62.32514512 eV

  energy without entropy =      -62.32870475  energy(sigma->0) =      -62.32633166


--------------------------------------------------------------------------------------------------------




--------------------------------------- Iteration      1(   3)  ---------------------------------------


     EDDAV:  cpu time      0.9886: real time      0.9947
       DOS:  cpu time      0.0006: real time      0.0006
    --------------------------------------------
      LOOP:  cpu time      0.9892: real time      0.9953

 eigenvalue-minimisations  :  1032
 total energy-change (2. order) :-0.1291386E+03  (-0.1150215E+03)
 number of electron     368.0000000 magnetization 
 augmentation part      368.0000000 magnetization 

 DIPCOR: dipole corrections for dipol
 direction  3 min pos   184,
 dipolmoment           0.000000      0.000000     -0.000046 electrons x Angstroem
 Tr[quadrupol]     -4463.902888

 energy correction for charged system         0.000000 eV
 dipol+quadrupol energy correction           -0.000000 eV
 added-field ion interaction         -0.000011 eV  (added to PSCEN)


 Free energy of the ion-electron system (eV)
  ---------------------------------------------------
  alpha Z        PSCENC =       628.75263800
  Ewald energy   TEWEN  =     75968.54115270
  -Hartree energ DENC   =   -106698.93801084
  -exchange      EXHF   =         0.00000000
  -V(xc)+E(xc)   XCENC  =     -1046.07688126
  PAW double counting   =     29264.33151030   -27021.15649540
  entropy T*S    EENTRO =        -0.05677981
  eigenvalues    EBANDS =      -739.41670844
  atomic energy  EATOM  =     29452.55580095
  Solvation  Ediel_sol  =         0.00000000
  ---------------------------------------------------
  free energy    TOTEN  =      -191.46377381 eV

  energy without entropy =     -191.40699400  energy(sigma->0) =     -191.44484721


--------------------------------------------------------------------------------------------------------




--------------------------------------- Iteration      1(   4)  ---------------------------------------


     EDDAV:  cpu time      0.9910: real time      0.9968
       DOS:  cpu time      0.0006: real time      0.0006
    --------------------------------------------
      LOOP:  cpu time      0.9917: real time      0.9974

 eigenvalue-minimisations  :  1040
 total energy-change (2. order) :-0.5156408E+01  (-0.4986113E+01)
 number of electron     368.0000000 magnetization 
 augmentation part      368.0000000 magnetization 

 DIPCOR: dipole corrections for dipol
 direction  3 min pos   184,
 dipolmoment           0.000000      0.000000     -0.000046 electrons x Angstroem
 Tr[quadrupol]     -4463.902888

 energy correction for charged system         0.000000 eV
 dipol+quadrupol energy correction           -0.000000 eV
 added-field ion interaction         -0.000011 eV  (added to PSCEN)


 Free energy of the ion-electron system (eV)
  ---------------------------------------------------
  alpha Z        PSCENC =       628.75263800
  Ewald energy   TEWEN  =     75968.54115270
  -Hartree energ DENC   =   -106698.93801084
  -exchange      EXHF   =         0.00000000
  -V(xc)+E(xc)   XCENC  =     -1046.07688126
  PAW double counting   =     29264.33151030   -27021.15649540
  entropy T*S    EENTRO =        -0.07063351
  eigenvalues    EBANDS =      -744.55926232
  atomic energy  EATOM  =     29452.55580095
  Solvation  Ediel_sol  =         0.00000000
  ---------------------------------------------------
  free energy    TOTEN  =      -196.62018139 eV

  energy without entropy =     -196.54954788  energy(sigma->0) =     -196.59663689


--------------------------------------------------------------------------------------------------------




--------------------------------------- Iteration      1(   5)  ---------------------------------------


     EDDAV:  cpu time      1.0338: real time      1.0399
       DOS:  cpu time      0.0004: real time      0.0004
    CHARGE:  cpu time      0.0452: real time      0.0457
    MIXING:  cpu time      0.0009: real time      0.0009
    --------------------------------------------
      LOOP:  cpu time      1.0803: real time      1.0869

 eigenvalue-minimisations  :  1104
 total energy-change (2. order) :-0.1732056E+00  (-0.1729325E+00)
 number of electron     368.0000001 magnetization 
 augmentation part      145.5565512 magnetization 

 DIPCOR: dipole corrections for dipol
 direction  3 min pos   184,
 dipolmoment           0.000000      0.000000     -0.000046 electrons x Angstroem
 Tr[quadrupol]     -4463.902888

 energy correction for charged system         0.000000 eV
 dipol+quadrupol energy correction           -0.000000 eV
 added-field ion interaction         -0.000011 eV  (added to PSCEN)


 Broyden mixing:
  rms(total) = 0.38286E+01    rms(broyden)= 0.38283E+01
  rms(prec ) = 0.39282E+01
  weight for this iteration     100.00

 Free energy of the ion-electron system (eV)
  ---------------------------------------------------
  alpha Z        PSCENC =       628.75263800
  Ewald energy   TEWEN  =     75968.54115270
  -Hartree energ DENC   =   -106698.93801084
  -exchange      EXHF   =         0.00000000
  -V(xc)+E(xc)   XCENC  =     -1046.07688126
  PAW double counting   =     29264.33151030   -27021.15649540
  entropy T*S    EENTRO =        -0.07075057
  eigenvalues    EBANDS =      -744.73235086
  atomic energy  EATOM  =     29452.55580095
  Solvation  Ediel_sol  =         0.00000000
  ---------------------------------------------------
  free energy    TOTEN  =      -196.79338699 eV

  energy without entropy =     -196.72263642  energy(sigma->0) =     -196.76980346


--------------------------------------------------------------------------------------------------------




--------------------------------------- Iteration      1(   6)  ---------------------------------------


    POTLOK:  cpu time      0.0362: real time      0.0364
    SETDIJ:  cpu time      0.0075: real time      0.0076
    EDDIAG:  cpu time      0.1499: real time      0.1510
  RMM-DIIS:  cpu time      0.5331: real time      0.5359
    ORTHCH:  cpu time      0.0225: real time      0.0226
       DOS:  cpu time      0.0006: real time      0.0006
    CHARGE:  cpu time      0.0424: real time      0.0426
    MIXING:  cpu time      0.0008: real time      0.0008
    --------------------------------------------
      LOOP:  cpu time      0.7930: real time      0.7974

 eigenvalue-minimisations  :   899
 total energy-change (2. order) : 0.6547992E+01  (-0.2670146E+01)
 number of electron     368.0000000 magnetization 
 augmentation part      150.3195038 magnetization 

 DIPCOR: dipole corrections for dipol
 direction  3 min pos   191,
 dipolmoment           0.000000      0.000000     -0.248680 electrons x Angstroem
 Tr[quadrupol]     -4467.286957

 energy correction for charged system         0.000000 eV
 dipol+quadrupol energy correction           -0.004023 eV
 added-field ion interaction         -5.985682 eV  (added to PSCEN)


 Broyden mixing:
  rms(total) = 0.23526E+01    rms(broyden)= 0.23525E+01
  rms(prec ) = 0.28141E+01
  weight for this iteration     100.00

 eigenvalues of (default mixing * dielectric matrix)
  average eigenvalue GAMMA=   1.2381
  1.2381

 Free energy of the ion-electron system (eV)
  ---------------------------------------------------
  alpha Z        PSCENC =       622.76294411
  Ewald energy   TEWEN  =     75968.54115270
  -Hartree energ DENC   =   -106576.80365211
  -exchange      EXHF   =         0.00000000
  -V(xc)+E(xc)   XCENC  =     -1052.54035770
  PAW double counting   =     31261.58555399   -29057.54082426
  entropy T*S    EENTRO =        -0.02989894
  eigenvalues    EBANDS =      -808.77611400
  atomic energy  EATOM  =     29452.55580095
  Solvation  Ediel_sol  =         0.00000000
  ---------------------------------------------------
  free energy    TOTEN  =      -190.24539527 eV

  energy without entropy =     -190.21549633  energy(sigma->0) =     -190.23542896


--------------------------------------------------------------------------------------------------------




--------------------------------------- Iteration      1(   7)  ---------------------------------------


    POTLOK:  cpu time      0.0352: real time      0.0354
    SETDIJ:  cpu time      0.0075: real time      0.0075
    EDDIAG:  cpu time      0.1476: real time      0.1483
  RMM-DIIS:  cpu time      0.6447: real time      0.6482
    ORTHCH:  cpu time      0.0225: real time      0.0226
       DOS:  cpu time      0.0006: real time      0.0006
    CHARGE:  cpu time      0.0435: real time      0.0437
    MIXING:  cpu time      0.0008: real time      0.0008
    --------------------------------------------
      LOOP:  cpu time      0.9025: real time      0.9071

 eigenvalue-minimisations  :  1101
 total energy-change (2. order) :-0.9549041E+02  (-0.5862310E+01)
 number of electron     367.9999991 magnetization 
 augmentation part      145.7905528 magnetization 

 DIPCOR: dipole corrections for dipol
 direction  3 min pos   185,
 dipolmoment           0.000000      0.000000      2.446686 electrons x Angstroem
 Tr[quadrupol]     -4469.786061

 energy correction for charged system         0.000000 eV
 dipol+quadrupol energy correction           -0.389434 eV
 added-field ion interaction          8.911178 eV  (added to PSCEN)


 Broyden mixing:
  rms(total) = 0.65233E+01    rms(broyden)= 0.65232E+01
  rms(prec ) = 0.10560E+02
  weight for this iteration     100.00

 eigenvalues of (default mixing * dielectric matrix)
  average eigenvalue GAMMA=   0.8850
  1.6369  0.1331

 Free energy of the ion-electron system (eV)
  ---------------------------------------------------
  alpha Z        PSCENC =       637.27439308
  Ewald energy   TEWEN  =     75968.54115270
  -Hartree energ DENC   =   -106616.20022127
  -exchange      EXHF   =         0.00000000
  -V(xc)+E(xc)   XCENC  =     -1053.10012213
  PAW double counting   =     32372.08169847   -30182.86320780
  entropy T*S    EENTRO =         0.00451262
  eigenvalues    EBANDS =      -864.02980758
  atomic energy  EATOM  =     29452.55580095
  Solvation  Ediel_sol  =         0.00000000
  ---------------------------------------------------
  free energy    TOTEN  =      -285.73580095 eV

  energy without entropy =     -285.74031357  energy(sigma->0) =     -285.73730516


--------------------------------------------------------------------------------------------------------




--------------------------------------- Iteration      1(   8)  ---------------------------------------


    POTLOK:  cpu time      0.0353: real time      0.0354
    SETDIJ:  cpu time      0.0076: real time      0.0076
    EDDIAG:  cpu time      0.1478: real time      0.1485
  RMM-DIIS:  cpu time      0.5805: real time      0.5835
    ORTHCH:  cpu time      0.0225: real time      0.0226
       DOS:  cpu time      0.0006: real time      0.0006
    CHARGE:  cpu time      0.0425: real time      0.0426
    MIXING:  cpu time      0.0009: real time      0.0009
    --------------------------------------------
      LOOP:  cpu time      0.8375: real time      0.8417

 eigenvalue-minimisations  :   975
 total energy-change (2. order) : 0.8162054E+02  (-0.3134090E+01)
 number of electron     367.9999998 magnetization 
 augmentation part      150.6112046 magnetization 

 DIPCOR: dipole corrections for dipol
 direction  3 min pos   192,
 dipolmoment           0.000000      0.000000      0.109089 electrons x Angstroem
 Tr[quadrupol]     -4472.494241

 energy correction for charged system         0.000000 eV
 dipol+quadrupol energy correction           -0.000774 eV
 added-field ion interaction          2.997147 eV  (added to PSCEN)


 Broyden mixing:
  rms(total) = 0.34111E+01    rms(broyden)= 0.34108E+01
  rms(prec ) = 0.44342E+01
  weight for this iteration     100.00

 eigenvalues of (default mixing * dielectric matrix)
  average eigenvalue GAMMA=   0.7237
  1.7983  0.2305  0.1422

 Free energy of the ion-electron system (eV)
  ---------------------------------------------------
  alpha Z        PSCENC =       631.74902180
  Ewald energy   TEWEN  =     75968.54115270
  -Hartree energ DENC   =   -106649.69292701
  -exchange      EXHF   =         0.00000000
  -V(xc)+E(xc)   XCENC  =     -1054.67129666
  PAW double counting   =     33275.69741186   -31103.35498823
  entropy T*S    EENTRO =         0.00391449
  eigenvalues    EBANDS =      -724.94334875
  atomic energy  EATOM  =     29452.55580095
  Solvation  Ediel_sol  =         0.00000000
  ---------------------------------------------------
  free energy    TOTEN  =      -204.11525885 eV

  energy without entropy =     -204.11917334  energy(sigma->0) =     -204.11656368


--------------------------------------------------------------------------------------------------------




--------------------------------------- Iteration      1(   9)  ---------------------------------------


    POTLOK:  cpu time      0.0353: real time      0.0355
    SETDIJ:  cpu time      0.0078: real time      0.0078
    EDDIAG:  cpu time      0.1475: real time      0.1481
  RMM-DIIS:  cpu time      0.5597: real time      0.5626
    ORTHCH:  cpu time      0.0224: real time      0.0225
       DOS:  cpu time      0.0006: real time      0.0006
    CHARGE:  cpu time      0.0422: real time      0.0424
    MIXING:  cpu time      0.0009: real time      0.0009
    --------------------------------------------
      LOOP:  cpu time      0.8164: real time      0.8204

 eigenvalue-minimisations  :   942
 total energy-change (2. order) : 0.1441915E+02  (-0.1350693E+01)
 number of electron     368.0000002 magnetization 
 augmentation part      152.1645414 magnetization 

 DIPCOR: dipole corrections for dipol
 direction  3 min pos   194,
 dipolmoment           0.000000      0.000000     -0.114568 electrons x Angstroem
 Tr[quadrupol]     -4470.307743

 energy correction for charged system         0.000000 eV
 dipol+quadrupol energy correction           -0.000854 eV
 added-field ion interaction         -3.927792 eV  (added to PSCEN)


 Broyden mixing:
  rms(total) = 0.13067E+01    rms(broyden)= 0.13060E+01
  rms(prec ) = 0.15250E+01
  weight for this iteration     100.00

 eigenvalues of (default mixing * dielectric matrix)
  average eigenvalue GAMMA=   0.6848
  1.8814  0.5109  0.1975  0.1497

 Free energy of the ion-electron system (eV)
  ---------------------------------------------------
  alpha Z        PSCENC =       624.82400300
  Ewald energy   TEWEN  =     75968.54115270
  -Hartree energ DENC   =   -106593.77078269
  -exchange      EXHF   =         0.00000000
  -V(xc)+E(xc)   XCENC  =     -1054.45391299
  PAW double counting   =     33570.84127074   -31402.14433231
  entropy T*S    EENTRO =        -0.00819935
  eigenvalues    EBANDS =      -756.08110817
  atomic energy  EATOM  =     29452.55580095
  Solvation  Ediel_sol  =         0.00000000
  ---------------------------------------------------
  free energy    TOTEN  =      -189.69610812 eV

  energy without entropy =     -189.68790877  energy(sigma->0) =     -189.69337500


--------------------------------------------------------------------------------------------------------




--------------------------------------- Iteration      1(  10)  ---------------------------------------


    POTLOK:  cpu time      0.0355: real time      0.0356
    SETDIJ:  cpu time      0.0081: real time      0.0081
    EDDIAG:  cpu time      0.1471: real time      0.1478
  RMM-DIIS:  cpu time      0.5558: real time      0.5587
    ORTHCH:  cpu time      0.0226: real time      0.0227
       DOS:  cpu time      0.0006: real time      0.0006
    CHARGE:  cpu time      0.0423: real time      0.0424
    MIXING:  cpu time      0.0009: real time      0.0009
    --------------------------------------------
      LOOP:  cpu time      0.8128: real time      0.8168

 eigenvalue-minimisations  :   932
 total energy-change (2. order) : 0.6858088E+00  (-0.6940663E+00)
 number of electron     368.0000001 magnetization 
 augmentation part      151.5938699 magnetization 

 DIPCOR: dipole corrections for dipol
 direction  3 min pos   194,
 dipolmoment           0.000000      0.000000     -0.136083 electrons x Angstroem
 Tr[quadrupol]     -4470.561887

 energy correction for charged system         0.000000 eV
 dipol+quadrupol energy correction           -0.001205 eV
 added-field ion interaction         -4.665430 eV  (added to PSCEN)


 Broyden mixing:
  rms(total) = 0.11593E+01    rms(broyden)= 0.11590E+01
  rms(prec ) = 0.13204E+01
  weight for this iteration     100.00

 eigenvalues of (default mixing * dielectric matrix)
  average eigenvalue GAMMA=   0.6776
  1.9515  0.8275  0.1522  0.2386  0.2181

 Free energy of the ion-electron system (eV)
  ---------------------------------------------------
  alpha Z        PSCENC =       624.08601380
  Ewald energy   TEWEN  =     75968.54115270
  -Hartree energ DENC   =   -106625.61259507
  -exchange      EXHF   =         0.00000000
  -V(xc)+E(xc)   XCENC  =     -1053.74057842
  PAW double counting   =     33838.95151508   -31670.18904620
  entropy T*S    EENTRO =        -0.05668370
  eigenvalues    EBANDS =      -723.54587849
  atomic energy  EATOM  =     29452.55580095
  Solvation  Ediel_sol  =         0.00000000
  ---------------------------------------------------
  free energy    TOTEN  =      -189.01029935 eV

  energy without entropy =     -188.95361565  energy(sigma->0) =     -188.99140478


--------------------------------------------------------------------------------------------------------




--------------------------------------- Iteration      1(  11)  ---------------------------------------


    POTLOK:  cpu time      0.0355: real time      0.0356
    SETDIJ:  cpu time      0.0080: real time      0.0080
    EDDIAG:  cpu time      0.1469: real time      0.1475
  RMM-DIIS:  cpu time      0.5506: real time      0.5533
    ORTHCH:  cpu time      0.0224: real time      0.0225
       DOS:  cpu time      0.0006: real time      0.0006
    CHARGE:  cpu time      0.0422: real time      0.0424
    MIXING:  cpu time      0.0009: real time      0.0009
    --------------------------------------------
      LOOP:  cpu time      0.8070: real time      0.8108

 eigenvalue-minimisations  :   922
 total energy-change (2. order) : 0.7329465E+00  (-0.2190152E+00)
 number of electron     368.0000000 magnetization 
 augmentation part      151.0059439 magnetization 

 DIPCOR: dipole corrections for dipol
 direction  3 min pos   194,
 dipolmoment           0.000000      0.000000     -0.054614 electrons x Angstroem
 Tr[quadrupol]     -4471.685449

 energy correction for charged system         0.000000 eV
 dipol+quadrupol energy correction           -0.000194 eV
 added-field ion interaction         -1.872381 eV  (added to PSCEN)


 Broyden mixing:
  rms(total) = 0.74315E+00    rms(broyden)= 0.74287E+00
  rms(prec ) = 0.93062E+00
  weight for this iteration     100.00

 eigenvalues of (default mixing * dielectric matrix)
  average eigenvalue GAMMA=   0.6510
  1.9940  0.8808  0.4062  0.1472  0.2100  0.2680

 Free energy of the ion-electron system (eV)
  ---------------------------------------------------
  alpha Z        PSCENC =       626.88007439
  Ewald energy   TEWEN  =     75968.54115270
  -Hartree energ DENC   =   -106675.02967155
  -exchange      EXHF   =         0.00000000
  -V(xc)+E(xc)   XCENC  =     -1053.13156028
  PAW double counting   =     34088.09450839   -31918.78329812
  entropy T*S    EENTRO =        -0.04396856
  eigenvalues    EBANDS =      -677.36039079
  atomic energy  EATOM  =     29452.55580095
  Solvation  Ediel_sol  =         0.00000000
  ---------------------------------------------------
  free energy    TOTEN  =      -188.27735286 eV

  energy without entropy =     -188.23338430  energy(sigma->0) =     -188.26269667


--------------------------------------------------------------------------------------------------------




--------------------------------------- Iteration      1(  12)  ---------------------------------------


    POTLOK:  cpu time      0.0354: real time      0.0355
    SETDIJ:  cpu time      0.0085: real time      0.0085
    EDDIAG:  cpu time      0.1482: real time      0.1489
  RMM-DIIS:  cpu time      0.5627: real time      0.5656
    ORTHCH:  cpu time      0.0224: real time      0.0225
       DOS:  cpu time      0.0006: real time      0.0006
    CHARGE:  cpu time      0.0420: real time      0.0422
    MIXING:  cpu time      0.0009: real time      0.0009
    --------------------------------------------
      LOOP:  cpu time      0.8208: real time      0.8248

 eigenvalue-minimisations  :   945
 total energy-change (2. order) :-0.1432779E+00  (-0.1243328E+00)
 number of electron     368.0000002 magnetization 
 augmentation part      151.0596858 magnetization 

 DIPCOR: dipole corrections for dipol
 direction  3 min pos   194,
 dipolmoment           0.000000      0.000000     -0.098375 electrons x Angstroem
 Tr[quadrupol]     -4471.538497

 energy correction for charged system         0.000000 eV
 dipol+quadrupol energy correction           -0.000630 eV
 added-field ion interaction         -3.372653 eV  (added to PSCEN)


 Broyden mixing:
  rms(total) = 0.82826E+00    rms(broyden)= 0.82805E+00
  rms(prec ) = 0.10542E+01
  weight for this iteration     100.00

 eigenvalues of (default mixing * dielectric matrix)
  average eigenvalue GAMMA=   0.6762
  2.1739  0.8661  0.8661  0.3131  0.1441  0.1851  0.1851

 Free energy of the ion-electron system (eV)
  ---------------------------------------------------
  alpha Z        PSCENC =       625.37936607
  Ewald energy   TEWEN  =     75968.54115270
  -Hartree energ DENC   =   -106676.82275388
  -exchange      EXHF   =         0.00000000
  -V(xc)+E(xc)   XCENC  =     -1052.92653753
  PAW double counting   =     34176.49475404   -32006.99109423
  entropy T*S    EENTRO =        -0.02249856
  eigenvalues    EBANDS =      -674.62882032
  atomic energy  EATOM  =     29452.55580095
  Solvation  Ediel_sol  =         0.00000000
  ---------------------------------------------------
  free energy    TOTEN  =      -188.42063076 eV

  energy without entropy =     -188.39813220  energy(sigma->0) =     -188.41313124


--------------------------------------------------------------------------------------------------------




--------------------------------------- Iteration      1(  13)  ---------------------------------------


    POTLOK:  cpu time      0.0356: real time      0.0357
    SETDIJ:  cpu time      0.0084: real time      0.0085
    EDDIAG:  cpu time      0.1472: real time      0.1478
  RMM-DIIS:  cpu time      0.5531: real time      0.5560
    ORTHCH:  cpu time      0.0224: real time      0.0225
       DOS:  cpu time      0.0005: real time      0.0005
    CHARGE:  cpu time      0.0422: real time      0.0423
    MIXING:  cpu time      0.0009: real time      0.0009
    --------------------------------------------
      LOOP:  cpu time      0.8104: real time      0.8143

 eigenvalue-minimisations  :   928
 total energy-change (2. order) : 0.3884795E+00  (-0.5537253E-01)
 number of electron     368.0000001 magnetization 
 augmentation part      151.0664959 magnetization 

 DIPCOR: dipole corrections for dipol
 direction  3 min pos   194,
 dipolmoment           0.000000      0.000000     -0.062732 electrons x Angstroem
 Tr[quadrupol]     -4472.220476

 energy correction for charged system         0.000000 eV
 dipol+quadrupol energy correction           -0.000256 eV
 added-field ion interaction         -2.150667 eV  (added to PSCEN)


 Broyden mixing:
  rms(total) = 0.49936E+00    rms(broyden)= 0.49911E+00
  rms(prec ) = 0.59131E+00
  weight for this iteration     100.00

 eigenvalues of (default mixing * dielectric matrix)
  average eigenvalue GAMMA=   0.6439
  2.2182  0.9400  0.9400  0.2947  0.1453  0.2078  0.2078  0.1974

 Free energy of the ion-electron system (eV)
  ---------------------------------------------------
  alpha Z        PSCENC =       626.60172614
  Ewald energy   TEWEN  =     75968.54115270
  -Hartree energ DENC   =   -106688.83278854
  -exchange      EXHF   =         0.00000000
  -V(xc)+E(xc)   XCENC  =     -1053.06838065
  PAW double counting   =     34309.63418111   -32141.53646312
  entropy T*S    EENTRO =        -0.04675905
  eigenvalues    EBANDS =      -661.88062076
  atomic energy  EATOM  =     29452.55580095
  Solvation  Ediel_sol  =         0.00000000
  ---------------------------------------------------
  free energy    TOTEN  =      -188.03215123 eV

  energy without entropy =     -187.98539218  energy(sigma->0) =     -188.01656488


--------------------------------------------------------------------------------------------------------




--------------------------------------- Iteration      1(  14)  ---------------------------------------


    POTLOK:  cpu time      0.0356: real time      0.0357
    SETDIJ:  cpu time      0.0087: real time      0.0088
    EDDIAG:  cpu time      0.1459: real time      0.1465
  RMM-DIIS:  cpu time      0.5514: real time      0.5543
    ORTHCH:  cpu time      0.0224: real time      0.0225
       DOS:  cpu time      0.0006: real time      0.0006
    CHARGE:  cpu time      0.0420: real time      0.0422
    MIXING:  cpu time      0.0010: real time      0.0010
    --------------------------------------------
      LOOP:  cpu time      0.8075: real time      0.8115

 eigenvalue-minimisations  :   927
 total energy-change (2. order) : 0.2203301E+00  (-0.2049397E-01)
 number of electron     368.0000001 magnetization 
 augmentation part      151.1255372 magnetization 

 DIPCOR: dipole corrections for dipol
 direction  3 min pos   194,
 dipolmoment           0.000000      0.000000     -0.070801 electrons x Angstroem
 Tr[quadrupol]     -4472.340526

 energy correction for charged system         0.000000 eV
 dipol+quadrupol energy correction           -0.000326 eV
 added-field ion interaction         -2.427330 eV  (added to PSCEN)


 Broyden mixing:
  rms(total) = 0.23014E+00    rms(broyden)= 0.23000E+00
  rms(prec ) = 0.26933E+00
  weight for this iteration     100.00

 eigenvalues of (default mixing * dielectric matrix)
  average eigenvalue GAMMA=   0.6440
  2.2132  1.0567  1.0567  0.3758  0.3758  0.2016  0.2016  0.1433  0.1713

 Free energy of the ion-electron system (eV)
  ---------------------------------------------------
  alpha Z        PSCENC =       626.32499321
  Ewald energy   TEWEN  =     75968.54115270
  -Hartree energ DENC   =   -106690.08552969
  -exchange      EXHF   =         0.00000000
  -V(xc)+E(xc)   XCENC  =     -1053.08256576
  PAW double counting   =     34340.84408975   -32172.98428596
  entropy T*S    EENTRO =        -0.07167934
  eigenvalues    EBANDS =      -659.85379696
  atomic energy  EATOM  =     29452.55580095
  Solvation  Ediel_sol  =         0.00000000
  ---------------------------------------------------
  free energy    TOTEN  =      -187.81182110 eV

  energy without entropy =     -187.74014176  energy(sigma->0) =     -187.78792799


--------------------------------------------------------------------------------------------------------




--------------------------------------- Iteration      1(  15)  ---------------------------------------


    POTLOK:  cpu time      0.0355: real time      0.0356
    SETDIJ:  cpu time      0.0087: real time      0.0088
    EDDIAG:  cpu time      0.1464: real time      0.1470
  RMM-DIIS:  cpu time      0.5597: real time      0.5626
    ORTHCH:  cpu time      0.0224: real time      0.0225
       DOS:  cpu time      0.0005: real time      0.0005
    CHARGE:  cpu time      0.0420: real time      0.0422
    MIXING:  cpu time      0.0010: real time      0.0010
    --------------------------------------------
      LOOP:  cpu time      0.8163: real time      0.8203

 eigenvalue-minimisations  :   936
 total energy-change (2. order) : 0.3337335E-01  (-0.9224190E-02)
 number of electron     368.0000001 magnetization 
 augmentation part      151.1034995 magnetization 

 DIPCOR: dipole corrections for dipol
 direction  3 min pos   193,
 dipolmoment           0.000000      0.000000     -0.060497 electrons x Angstroem
 Tr[quadrupol]     -4472.614980

 energy correction for charged system         0.000000 eV
 dipol+quadrupol energy correction           -0.000238 eV
 added-field ion interaction         -1.868092 eV  (added to PSCEN)


 Broyden mixing:
  rms(total) = 0.17739E+00    rms(broyden)= 0.17733E+00
  rms(prec ) = 0.20638E+00
  weight for this iteration     100.00

 eigenvalues of (default mixing * dielectric matrix)
  average eigenvalue GAMMA=   0.6105
  2.1980  1.1037  1.1037  0.3893  0.3893  0.2223  0.1926  0.1926  0.1444  0.1686

 Free energy of the ion-electron system (eV)
  ---------------------------------------------------
  alpha Z        PSCENC =       626.88431875
  Ewald energy   TEWEN  =     75968.54115270
  -Hartree energ DENC   =   -106697.18166699
  -exchange      EXHF   =         0.00000000
  -V(xc)+E(xc)   XCENC  =     -1053.03397052
  PAW double counting   =     34357.47777264   -32189.36805700
  entropy T*S    EENTRO =        -0.07532347
  eigenvalues    EBANDS =      -653.57847481
  atomic energy  EATOM  =     29452.55580095
  Solvation  Ediel_sol  =         0.00000000
  ---------------------------------------------------
  free energy    TOTEN  =      -187.77844775 eV

  energy without entropy =     -187.70312428  energy(sigma->0) =     -187.75333993


--------------------------------------------------------------------------------------------------------




--------------------------------------- Iteration      1(  16)  ---------------------------------------


    POTLOK:  cpu time      0.0354: real time      0.0355
    SETDIJ:  cpu time      0.0086: real time      0.0086
    EDDIAG:  cpu time      0.1472: real time      0.1479
  RMM-DIIS:  cpu time      0.5675: real time      0.5704
    ORTHCH:  cpu time      0.0237: real time      0.0238
       DOS:  cpu time      0.0006: real time      0.0006
    CHARGE:  cpu time      0.0421: real time      0.0422
    MIXING:  cpu time      0.0010: real time      0.0010
    --------------------------------------------
      LOOP:  cpu time      0.8261: real time      0.8301

 eigenvalue-minimisations  :   950
 total energy-change (2. order) : 0.1843688E-01  (-0.2629982E-02)
 number of electron     368.0000001 magnetization 
 augmentation part      151.0912539 magnetization 

 DIPCOR: dipole corrections for dipol
 direction  3 min pos   193,
 dipolmoment           0.000000      0.000000     -0.054920 electrons x Angstroem
 Tr[quadrupol]     -4472.776301

 energy correction for charged system         0.000000 eV
 dipol+quadrupol energy correction           -0.000196 eV
 added-field ion interaction         -1.695877 eV  (added to PSCEN)


 Broyden mixing:
  rms(total) = 0.10884E+00    rms(broyden)= 0.10881E+00
  rms(prec ) = 0.12809E+00
  weight for this iteration     100.00

 eigenvalues of (default mixing * dielectric matrix)
  average eigenvalue GAMMA=   0.6239
  2.1851  1.1850  1.1850  0.5199  0.5199  0.3148  0.2470  0.1982  0.1982  0.1435
  0.1663

 Free energy of the ion-electron system (eV)
  ---------------------------------------------------
  alpha Z        PSCENC =       627.05657543
  Ewald energy   TEWEN  =     75968.54115270
  -Hartree energ DENC   =   -106701.81167902
  -exchange      EXHF   =         0.00000000
  -V(xc)+E(xc)   XCENC  =     -1052.98848177
  PAW double counting   =     34362.53732981   -32194.19297157
  entropy T*S    EENTRO =        -0.07759906
  eigenvalues    EBANDS =      -649.38013833
  atomic energy  EATOM  =     29452.55580095
  Solvation  Ediel_sol  =         0.00000000
  ---------------------------------------------------
  free energy    TOTEN  =      -187.76001088 eV

  energy without entropy =     -187.68241181  energy(sigma->0) =     -187.73414452


--------------------------------------------------------------------------------------------------------




--------------------------------------- Iteration      1(  17)  ---------------------------------------


    POTLOK:  cpu time      0.0353: real time      0.0355
    SETDIJ:  cpu time      0.0087: real time      0.0087
    EDDIAG:  cpu time      0.1475: real time      0.1482
  RMM-DIIS:  cpu time      0.5604: real time      0.5633
    ORTHCH:  cpu time      0.0226: real time      0.0226
       DOS:  cpu time      0.0006: real time      0.0006
    CHARGE:  cpu time      0.0419: real time      0.0421
    MIXING:  cpu time      0.0010: real time      0.0010
    --------------------------------------------
      LOOP:  cpu time      0.8180: real time      0.8220

 eigenvalue-minimisations  :   950
 total energy-change (2. order) :-0.3544310E-02  (-0.1766866E-02)
 number of electron     368.0000001 magnetization 
 augmentation part      151.0670965 magnetization 

 DIPCOR: dipole corrections for dipol
 direction  3 min pos   192,
 dipolmoment           0.000000      0.000000     -0.045558 electrons x Angstroem
 Tr[quadrupol]     -4472.999290

 energy correction for charged system         0.000000 eV
 dipol+quadrupol energy correction           -0.000135 eV
 added-field ion interaction         -1.251674 eV  (added to PSCEN)


 Broyden mixing:
[...]
    142      -0.2601      2.00000
    143      -0.2377      2.00000
    144      -0.2142      2.00000
    145      -0.1920      2.00000
    146      -0.1768      2.00000
    147      -0.1635      2.00000
    148      -0.1405      2.00000
    149      -0.1319      2.00000
    150      -0.0745      2.00000
    151      -0.0537      2.00000
    152      -0.0057      2.00000
    153       0.0241      2.00000
    154       0.0440      2.00000
    155       0.0781      2.00000
    156       0.0943      2.00000
    157       0.1164      2.00000
    158       0.1407      2.00000
    159       0.1731      2.00000
    160       0.1858      2.00000
    161       0.1886      2.00000
    162       0.2175      2.00000
    163       0.2332      2.00000
    164       0.2414      2.00000
    165       0.2737      2.00000
    166       0.3296      2.00000
    167       0.3470      2.00001
    168       0.3598      2.00003
    169       0.3914      2.00017
    170       0.4118      2.00052
    171       0.4344      2.00158
    172       0.4390      2.00195
    173       0.4469      2.00278
    174       0.4615      2.00512
    175       0.4774      2.00941
    176       0.4807      2.01061
    177       0.5074      2.02486
    178       0.5503      2.06161
    179       0.5731      2.07066
    180       0.5981      2.03735
    181       0.6194      1.94220
    182       0.6618      1.49748
    183       0.6722      1.33997
    184       0.6912      1.02635
    185       0.6986      0.90204
    186       0.7157      0.62306
    187       0.7278      0.44551
    188       0.7584      0.11262
    189       0.8052     -0.06737
    190       0.8522     -0.04669
    191       0.9622     -0.00093
    192       1.0435     -0.00001
    193       1.3772     -0.00000
    194       1.5204     -0.00000
    195       1.5613     -0.00000
    196       1.6294     -0.00000
    197       1.7232     -0.00000
    198       1.8735     -0.00000
    199       2.0731     -0.00000
    200       2.1257     -0.00000
    201       2.2769     -0.00000
    202       2.5813     -0.00000
    203       3.0248      0.00000
    204       3.2665      0.00000
    205       3.3566      0.00000
    206       3.4272      0.00000
    207       3.5233      0.00000
    208       3.7757      0.00000
    209       3.9736      0.00000
    210       4.1331      0.00000
    211       4.3615      0.00000
    212       4.6962      0.00000
    213       4.7677      0.00000
    214       5.0391      0.00000
    215       5.2307      0.00000
    216       5.3699      0.00000
    217       5.4831      0.00000
    218       5.7498      0.00000
    219       5.9074      0.00000
    220       5.9620      0.00000


--------------------------------------------------------------------------------------------------------


 soft charge-density along one line, spin component           1
         0         1         2         3         4         5         6         7         8         9
 total charge-density along one line

 pseudopotential strength for first ion, spin component:           1
 -6.263   0.000  -0.000  -0.002   0.000  -6.331   0.000  -0.000
  0.000  -6.211  -0.001   0.000   0.001   0.000  -6.281  -0.001
 -0.000  -0.001  -6.173   0.000  -0.002  -0.000  -0.001  -6.245
 -0.002   0.000   0.000  -6.208  -0.000  -0.002   0.000   0.000
  0.000   0.001  -0.002  -0.000  -6.321   0.000   0.001  -0.002
 -6.331   0.000  -0.000  -0.002   0.000  -6.373   0.000  -0.000
  0.000  -6.281  -0.001   0.000   0.001   0.000  -6.326  -0.001
 -0.000  -0.001  -6.245   0.000  -0.002  -0.000  -0.001  -6.291
 -0.002   0.000   0.000  -6.279  -0.000  -0.002   0.000   0.000
  0.000   0.001  -0.002  -0.000  -6.387   0.000   0.001  -0.002
 -0.000   0.001  -0.025  -0.000  -0.001  -0.000   0.001  -0.024
 -0.000   0.002  -0.042  -0.000  -0.001  -0.000   0.001  -0.041
  0.000  -0.017   0.000  -0.000   0.001   0.000  -0.016   0.000
 -0.000  -0.001  -0.021   0.000  -0.000  -0.000  -0.001  -0.020
 -0.001  -0.000  -0.000  -0.017   0.000  -0.001  -0.000  -0.000
  0.000  -0.019   0.000  -0.000   0.001   0.000  -0.018   0.000
 -0.000  -0.001  -0.023   0.000  -0.000  -0.000  -0.001  -0.022
 -0.001  -0.000  -0.000  -0.019   0.000  -0.001  -0.000  -0.000
 total augmentation occupancy for first ion, spin component:           1
  2.784   0.001   0.000  -0.018   0.000  -1.156  -0.000  -0.000   0.009  -0.000   0.000  -0.000   0.000   0.000  -0.003   0.000
  0.001   2.440  -0.011   0.001  -0.005  -0.000  -0.973   0.006  -0.001   0.002  -0.027   0.006  -0.218   0.004  -0.000  -0.007
  0.000  -0.011   2.685   0.001  -0.010  -0.000   0.006  -1.053  -0.001   0.006   0.633  -0.165   0.002  -0.114  -0.000   0.000
 -0.018   0.001   0.001   2.442  -0.001   0.010  -0.001  -0.001  -0.972   0.000   0.000  -0.000  -0.000  -0.000  -0.220  -0.000
  0.000  -0.005  -0.010  -0.001   1.593  -0.000   0.002   0.006   0.000  -0.714  -0.007  -0.001  -0.001   0.004  -0.000   0.000
 -1.156  -0.000  -0.000   0.010  -0.000   1.389   0.000   0.000  -0.006  -0.000  -0.000   0.000  -0.000  -0.000   0.002   0.000
 -0.000  -0.973   0.006  -0.001   0.002   0.000   1.332  -0.004   0.000  -0.001   0.009   0.000   0.255  -0.002   0.000  -0.021
 -0.000   0.006  -1.053  -0.001   0.006   0.000  -0.004   1.308   0.000  -0.004  -0.387   0.038  -0.001   0.185   0.000   0.000
  0.009  -0.001  -0.001  -0.972   0.000  -0.006   0.000   0.000   1.331  -0.000  -0.000   0.000   0.000   0.000   0.256   0.000
 -0.000   0.002   0.006   0.000  -0.714  -0.000  -0.001  -0.004  -0.000   1.479   0.006  -0.001   0.000  -0.002   0.000   0.000
  0.000  -0.027   0.633   0.000  -0.007  -0.000   0.009  -0.387  -0.000   0.006   1.781  -0.270   0.001   0.214  -0.000   0.000
 -0.000   0.006  -0.165  -0.000  -0.001   0.000   0.000   0.038   0.000  -0.001  -0.270   0.048   0.000  -0.042  -0.000  -0.000
  0.000  -0.218   0.002  -0.000  -0.001  -0.000   0.255  -0.001   0.000   0.000   0.001   0.000   0.167  -0.001  -0.000  -0.010
  0.000   0.004  -0.114  -0.000   0.004  -0.000  -0.002   0.185   0.000  -0.002   0.214  -0.042  -0.001   0.109  -0.000  -0.000
 -0.003  -0.000  -0.000  -0.220  -0.000   0.002   0.000   0.000   0.256   0.000  -0.000  -0.000  -0.000  -0.000   0.168   0.000
  0.000  -0.007   0.000  -0.000   0.000   0.000  -0.021   0.000   0.000   0.000   0.000  -0.000  -0.010  -0.000   0.000   0.001
 -0.000  -0.001  -0.023   0.000  -0.000   0.000  -0.000  -0.013   0.000   0.000  -0.027   0.006  -0.000  -0.009   0.000   0.000
 -0.000  -0.000  -0.000  -0.007   0.000  -0.000   0.000  -0.000  -0.021   0.000   0.000   0.000  -0.000   0.000  -0.010   0.000


------------------------ aborting loop because EDIFF is reached ----------------------------------------


    CHARGE:  cpu time      0.0420: real time      0.0421
    FORLOC:  cpu time      0.0054: real time      0.0054
    FORNL :  cpu time      0.1936: real time      0.1944
    STRESS:  cpu time      0.5658: real time      0.5682
    FORCOR:  cpu time      0.0394: real time      0.0395
    FORHAR:  cpu time      0.0115: real time      0.0115
    MIXING:  cpu time      0.0013: real time      0.0013
    OFIELD:  cpu time      0.0000: real time      0.0000

  FORCE on cell =-STRESS in cart. coord.  units (eV):
  Direction    XX          YY          ZZ          XY          YZ          ZX
  --------------------------------------------------------------------------------------
  Alpha Z   628.75265   628.75265   628.75265
  Ewald   95716.92671 95672.99573************     0.64871    15.54315    -1.43728
  Hartree103607.28401103564.02277************    -0.01520     3.38265    -0.66282
  E(xc)   -1908.01618 -1907.92950 -1916.39258     0.00671     0.08286    -0.01010
  Local  ************************209504.85482    -0.41929   -15.03759     1.99009
  n-local  -122.10770  -123.22958  -126.78603     0.01559     0.69883    -0.05306
  augment  2644.92079  2646.88585  2677.50106     0.00266    -0.34514     0.08174
  Kinetic  4991.25643  4980.93606  5057.79392    -0.27321    -4.32115     0.08240
  Fock        0.00000     0.00000     0.00000     0.00000     0.00000     0.00000
  -------------------------------------------------------------------------------------
  Total     -20.24415   -21.21863    -3.15309    -0.03403     0.00362    -0.00904
  in kB     -23.32029   -24.44284    -3.63221    -0.03920     0.00417    -0.01042
  external pressure =      -17.13 kB  Pullay stress =        0.00 kB


 VOLUME and BASIS-vectors are now :
 -----------------------------------------------------------------------------
  energy-cutoff  :      400.00
  volume of cell :     1390.84
      direct lattice vectors                 reciprocal lattice vectors
     8.358002154  0.000000000  0.000000000     0.119645817  0.000000000  0.000000000
     0.000000000  8.358002154  0.000000000     0.000000000  0.119645817  0.000000000
     0.000000000  0.000000000 19.910000000     0.000000000  0.000000000  0.050226017

  length of vectors
     8.358002154  8.358002154 19.910000000     0.119645817  0.119645817  0.050226017


 FORCES acting on ions
    electron-ion (+dipol)            ewald-force                    non-local-force                 convergence-correction
 -----------------------------------------------------------------------------------------------
   -.547E-01 -.221E+00 0.210E+04   0.302E-01 0.276E+00 -.209E+04   -.737E-03 -.325E-01 -.310E+01   0.232E-01 0.496E-03 0.646E-02
   -.706E-01 0.320E-02 0.210E+04   0.565E-01 0.763E-01 -.209E+04   -.479E-02 -.354E-01 -.308E+01   0.107E-01 -.838E-02 0.270E-01
   0.130E+00 -.685E-02 0.210E+04   -.910E-01 0.868E-01 -.209E+04   0.547E-02 -.363E-01 -.308E+01   -.338E-01 -.109E-01 0.109E-01
   -.755E-01 0.388E+00 0.210E+04   0.511E-01 -.365E+00 -.209E+04   0.151E-02 -.591E-02 -.314E+01   0.248E-01 -.335E-01 -.441E-02
   0.642E-01 0.211E+00 0.210E+04   -.382E-01 -.239E+00 -.209E+04   -.206E-01 0.548E-01 -.305E+01   -.158E-01 -.495E-01 0.787E-02
   0.774E-02 0.232E+00 0.210E+04   -.127E-01 -.264E+00 -.209E+04   0.213E-01 0.566E-01 -.305E+01   -.911E-02 -.487E-01 -.943E-02
   -.788E-01 -.154E+00 0.210E+04   0.577E-01 0.910E-01 -.209E+04   -.111E-02 0.271E-01 -.309E+01   0.223E-01 0.331E-01 -.204E-01
   -.784E-01 -.211E+00 0.210E+04   0.933E-01 0.158E+00 -.209E+04   -.317E-01 -.568E-02 -.315E+01   -.457E-02 0.578E-01 -.149E-01
   0.157E+00 -.233E+00 0.210E+04   -.151E+00 0.180E+00 -.209E+04   0.327E-01 -.417E-02 -.315E+01   -.177E-01 0.594E-01 -.308E-01
   0.435E+00 -.434E+01 0.750E+03   -.504E+00 0.426E+01 -.750E+03   0.606E-01 0.693E-01 -.371E-01   0.359E-02 0.386E-01 0.899E-01
   -.898E+00 -.419E+01 0.750E+03   0.934E+00 0.411E+01 -.750E+03   -.496E-01 0.715E-01 -.294E-01   0.276E-01 0.403E-01 0.931E-01
   0.304E+00 -.462E+01 0.748E+03   -.272E+00 0.437E+01 -.749E+03   -.202E-02 0.200E+00 -.532E-01   -.313E-01 0.772E-01 0.688E-01
   -.168E+01 0.105E+01 0.751E+03   0.166E+01 -.103E+01 -.751E+03   0.353E-01 -.156E-01 -.143E+00   0.727E-02 -.161E-01 0.128E+00
   0.132E+01 0.768E+00 0.751E+03   -.133E+01 -.748E+00 -.751E+03   -.272E-01 -.591E-02 -.149E+00   0.270E-01 -.149E-01 0.131E+00
   0.219E+00 0.171E+01 0.751E+03   -.185E+00 -.166E+01 -.751E+03   -.140E-03 -.171E-01 -.867E-01   -.342E-01 -.556E-01 0.120E+00
   -.165E+00 0.349E+01 0.750E+03   0.174E+00 -.344E+01 -.751E+03   -.430E-01 -.714E-01 -.600E-02   0.442E-01 -.225E-01 0.146E+00
   -.370E+00 0.335E+01 0.750E+03   0.324E+00 -.330E+01 -.750E+03   0.494E-01 -.652E-01 -.138E-01   -.117E-01 -.255E-01 0.147E+00
   0.565E+00 0.282E+01 0.749E+03   -.532E+00 -.262E+01 -.749E+03   -.922E-02 -.201E+00 -.589E-01   -.325E-01 -.213E-01 0.108E+00
   -.142E+00 -.869E+00 -.651E+03   0.111E+00 0.696E+00 0.650E+03   -.325E-03 0.147E+00 0.404E+00   0.280E-01 0.300E-01 0.124E+00
   -.253E+01 0.832E+01 -.645E+03   0.232E+01 -.805E+01 0.645E+03   0.209E+00 -.324E+00 0.367E-01   -.431E-02 0.406E-01 0.902E-01
   0.296E+01 0.815E+01 -.647E+03   -.271E+01 -.788E+01 0.647E+03   -.228E+00 -.295E+00 0.116E-01   -.233E-01 0.393E-01 0.104E+00
   -.307E+00 0.942E+00 -.646E+03   0.286E+00 -.850E+00 0.646E+03   -.120E-01 -.919E-01 0.406E+00   0.272E-01 0.361E-02 0.156E+00
   -.371E+01 -.691E+01 -.643E+03   0.379E+01 0.671E+01 0.643E+03   -.207E-01 0.263E+00 -.162E+00   -.581E-01 -.635E-01 0.115E+00
   0.400E+01 -.745E+01 -.639E+03   -.406E+01 0.724E+01 0.639E+03   0.282E-01 0.293E+00 -.146E+00   0.304E-01 -.614E-01 0.131E+00
   -.147E+00 -.133E+00 -.630E+03   0.124E+00 0.211E+00 0.630E+03   -.545E-02 -.483E-01 -.756E-01   0.265E-01 -.307E-01 0.174E+00
   -.339E+01 -.816E+00 -.640E+03   0.354E+01 0.769E+00 0.640E+03   -.877E-01 0.183E-01 -.532E-01   -.666E-01 0.240E-01 0.120E+00
   0.363E+01 -.861E+00 -.638E+03   -.376E+01 0.822E+00 0.638E+03   0.906E-01 0.176E-01 -.329E-01   0.400E-01 0.234E-01 0.134E+00
   0.886E+01 0.202E+02 -.201E+04   -.880E+01 -.209E+02 0.200E+04   -.911E-01 0.663E+00 0.326E+01   0.391E-01 -.129E-01 0.762E-01
   -.861E+01 0.219E+02 -.200E+04   0.854E+01 -.225E+02 0.200E+04   0.898E-01 0.616E+00 0.324E+01   -.246E-01 -.120E-01 0.618E-01
   -.394E+00 0.487E+02 -.201E+04   0.398E+00 -.468E+02 0.200E+04   0.126E-01 -.197E+01 0.795E+00   -.142E-01 0.494E-01 0.686E-01
   0.616E+02 0.124E+02 -.193E+04   -.608E+02 -.121E+02 0.193E+04   -.808E+00 -.384E+00 -.187E+00   0.226E-01 0.237E-01 0.392E-01
   -.624E+02 0.111E+02 -.194E+04   0.616E+02 -.108E+02 0.194E+04   0.848E+00 -.324E+00 -.232E+00   -.104E-01 0.222E-01 0.233E-01
   -.385E+00 -.350E+02 -.201E+04   0.376E+00 0.330E+02 0.200E+04   0.152E-01 0.201E+01 0.952E+00   -.135E-01 -.191E-01 0.336E-01
   0.179E+02 -.313E+02 -.199E+04   -.182E+02 0.318E+02 0.199E+04   0.199E+00 -.506E+00 0.311E+01   0.838E-01 -.147E-01 0.498E-01
   -.185E+02 -.317E+02 -.200E+04   0.187E+02 0.322E+02 0.199E+04   -.181E+00 -.498E+00 0.313E+01   -.703E-01 -.143E-01 0.356E-01
   0.424E+00 -.143E+02 -.202E+04   -.405E+00 0.144E+02 0.202E+04   -.913E-02 -.597E-01 0.328E+01   -.132E-01 -.306E-01 0.655E-01
   0.153E+00 0.346E+01 -.263E+03   -.165E+00 -.349E+01 0.265E+03   0.159E-01 0.251E-01 -.157E+01   -.749E-03 0.254E-02 0.384E-02
   -.552E+00 -.410E+02 -.235E+03   0.611E+00 0.451E+02 0.235E+03   -.782E-01 -.409E+01 -.691E+00   0.365E-03 0.202E-02 0.431E-02
   0.170E+01 0.346E+02 -.143E+04   -.176E+01 -.396E+02 0.144E+04   0.664E-01 0.507E+01 -.549E+01   0.257E-02 0.895E-02 0.149E-01
 -----------------------------------------------------------------------------------------------
   -.678E-01 -.519E+00 0.159E+02   0.282E-13 0.171E-12 0.341E-11   0.681E-01 0.512E+00 -.185E+02   0.112E-02 0.105E-01 0.263E+01


 POSITION                                       TOTAL-FORCE (eV/Angst)
 -----------------------------------------------------------------------------------
      1.39300      1.39300      0.00000        -0.002139      0.022862      0.101330
      4.17900      1.39300      0.00000        -0.008176      0.035667      0.109788
      6.96500      1.39300      0.00000         0.010956      0.032738      0.105350
      1.39300      4.17900      0.00000         0.001817     -0.016048      0.077306
      4.17900      4.17900      0.00000        -0.010429     -0.022136      0.114326
      6.96500      4.17900      0.00000         0.007195     -0.024692      0.116008
      1.39300      6.96500      0.00000         0.000016     -0.002903      0.065192
      4.17900      6.96500      0.00000        -0.021435     -0.000399      0.070388
      6.96500      6.96500      0.00000         0.020721      0.002203      0.069308
      0.00000      0.00000      1.97000        -0.004854      0.033071     -0.062438
      2.78600      0.00000      1.97000         0.014280      0.036481     -0.054723
      5.57200      0.00000      1.97000        -0.001062      0.029646     -0.178337
      0.00000      2.78600      1.97000         0.019963     -0.009996     -0.105742
      2.78600      2.78600      1.97000        -0.010440     -0.001582     -0.107688
      5.57200      2.78600      1.97000        -0.000289     -0.020305     -0.004950
      0.00000      5.57200      1.97000         0.009976     -0.044517     -0.136159
      2.78600      5.57200      1.97000        -0.008839     -0.039906     -0.137465
      5.57200      5.57200      1.97000        -0.008360     -0.024439     -0.116481
      1.39486      1.40240      3.94269        -0.002397      0.003147      0.000698
      4.17629      1.41069      3.93848        -0.011788     -0.013766      0.000758
      6.97336      1.40418      3.94109        -0.003746      0.009812     -0.015216
      1.39514      4.16398      3.94499        -0.005051      0.004023      0.003895
      4.17347      4.16532      3.93262         0.005541     -0.003815     -0.000054
      6.96731      4.16124      3.92677         0.001020      0.016034      0.011211
      1.39305      6.96533      3.90530        -0.001525     -0.000935      0.005448
      4.18285      6.96883      3.91220         0.000632     -0.004535      0.008535
      6.96058      6.96803      3.90933        -0.000196      0.001611      0.023657
      0.00638      8.32613      5.87472         0.005176      0.016521     -0.017963
      2.78296      8.33143      5.86844        -0.008879     -0.003283      0.003586
      5.57243      8.34764      5.89790         0.002388      0.004920     -0.008240
      8.28646      2.79670      5.97182         0.005098     -0.014947      0.033623
      2.86355      2.78972      5.98589         0.002574      0.001781     -0.022688
      5.57537      2.79317      5.93729        -0.007140     -0.012065     -0.007773
      8.34787      5.59112      5.86257         0.009810     -0.005907      0.012190
      2.78932      5.59159      5.86871         0.005104     -0.004210     -0.000904
      5.57165      5.57753      5.86566        -0.003195      0.004301      0.016194
      5.56469      1.37736      6.89464         0.002359     -0.003754      0.025105
      1.41312      4.22545      7.95434        -0.018747      0.001846      0.009002
      1.38841      2.87302      7.72665         0.014062      0.017476     -0.006074
 -----------------------------------------------------------------------------------
    total drift:                                0.001411      0.002993     -0.012450


--------------------------------------------------------------------------------------------------------



  FREE ENERGIE OF THE ION-ELECTRON SYSTEM (eV)
  ---------------------------------------------------
  free  energy   TOTEN  =      -187.74630869 eV

  energy  without entropy=     -187.66847154  energy(sigma->0) =     -187.72036297



--------------------------------------------------------------------------------------------------------


    POTLOK:  cpu time      0.0450: real time      0.0452


--------------------------------------------------------------------------------------------------------


     LOOP+:  cpu time     22.6056: real time     22.7268
 vacuum level on the upper side and lower side of the slab         5.127         5.188
    4ORBIT:  cpu time      0.0000: real time      0.0000

 total amount of memory used by VASP MPI-rank0    49449. kBytes
=======================================================================

   base      :      30000. kBytes
   nonlr-proj:       4891. kBytes
   fftplans  :       3716. kBytes
   grid      :       6996. kBytes
   one-center:         31. kBytes
   wavefun   :       3815. kBytes

  
  
 General timing and accounting informations for this job:
 ========================================================
  
                  Total CPU time used (sec):       23.811
                            User time (sec):       22.698
                          System time (sec):        1.113
                         Elapsed time (sec):       24.754
  
                   Maximum memory used (kb):      333448.
                   Average memory used (kb):          N/A
  
                          Minor page faults:        85505
                          Major page faults:           73
                 Voluntary context switches:         1887
