<?xml version="1.0" encoding="ISO-8859-1"?>
<modeling>
 <generator>
  <i name="program" type="string">vasp </i>
  <i name="version" type="string">6.4.3  </i>
  <i name="subversion" type="string">19Mar24 (build Oct  2 2024 09:01:45) complex                          parallel </i>
  <i name="platform" type="string">LinuxGNU </i>
  <i name="date" type="string">2025 02 22 </i>
  <i name="time" type="string">13:37:38 </i>
 </generator>
 <incar>
  <i type="string" name="PREC">Accurate</i>
  <i type="string" name="ALGO">Fast</i>
  <i type="int" name="ICHARG">     2</i>
  <i type="int" name="IBRION">    -1</i>
  <i name="EDIFF">      0.00010000</i>
  <i name="EDIFFG">     -0.03000000</i>
  <i type="int" name="ISYM">     0</i>
  <i name="ENCUT">    400.00000000</i>
  <i type="string" name="LREAL">Auto</i>
  <i type="int" name="ISMEAR">     1</i>
  <i name="SIGMA">      0.10000000</i>
  <i type="logical" name="LWAVE"> F  </i>
  <i type="logical" name="LCHARG"> F  </i>
  <i type="string" name="GGA">PE</i>
  <i type="logical" name="LDIPOL"> T  </i>
  <i type="int" name="IDIPOL">     3</i>
 </incar>
 <primitive_cell>
  <structure name="primitive_cell" >
   <crystal>
    <varray name="basis" >
     <v>       8.35800215       0.00000000       0.00000000 </v>
     <v>       0.00000000       8.35800215       0.00000000 </v>
     <v>       0.00000000       0.00000000      19.91000000 </v>
    </varray>
    <i name="volume">   1390.83694200 </i>
    <varray name="rec_basis" >
     <v>       0.11964582       0.00000000       0.00000000 </v>
     <v>       0.00000000       0.11964582       0.00000000 </v>
     <v>       0.00000000       0.00000000       0.05022602 </v>
    </varray>
   </crystal>
   <varray name="positions" >
    <v>       0.16666667       0.16666667       0.00000000 </v>
    <v>       0.50000000       0.16666667       0.00000000 </v>
    <v>       0.83333333       0.16666667       0.00000000 </v>
    <v>       0.16666667       0.50000000       0.00000000 </v>
    <v>       0.50000000       0.50000000       0.00000000 </v>
    <v>       0.83333333       0.50000000       0.00000000 </v>
    <v>       0.16666667       0.83333333       0.00000000 </v>
    <v>       0.50000000       0.83333333       0.00000000 </v>
    <v>       0.83333333       0.83333333       0.00000000 </v>
    <v>       0.00000000       0.00000000       0.09894525 </v>
    <v>       0.33333333       0.00000000       0.09894525 </v>
    <v>       0.66666667       0.00000000       0.09894525 </v>
    <v>       0.00000000       0.33333333       0.09894525 </v>
    <v>       0.33333333       0.33333333       0.09894525 </v>
    <v>       0.66666667       0.33333333       0.09894525 </v>
    <v>       0.00000000       0.66666667       0.09894525 </v>
    <v>       0.33333333       0.66666667       0.09894525 </v>
    <v>       0.66666667       0.66666667       0.09894525 </v>
    <v>       0.16688959       0.16779149       0.19802575 </v>
    <v>       0.49967507       0.16878359       0.19781416 </v>
    <v>       0.83433343       0.16800372       0.19794516 </v>
    <v>       0.16692246       0.49820285       0.19814131 </v>
    <v>       0.49933831       0.49836319       0.19751987 </v>
    <v>       0.83360944       0.49787523       0.19722598 </v>
    <v>       0.16667272       0.83337212       0.19614780 </v>
    <v>       0.50046039       0.83379139       0.19649430 </v>
    <v>       0.83280403       0.83369551       0.19635022 </v>
    <v>       0.00076326       0.99618655       0.29506403 </v>
    <v>       0.33296916       0.99682044       0.29474843 </v>
    <v>       0.66671796       0.99875970       0.29622810 </v>
    <v>       0.99144054       0.33461360       0.29994063 </v>
    <v>       0.34261135       0.33377793       0.30064731 </v>
    <v>       0.66706978       0.33419106       0.29820651 </v>
    <v>       0.99878779       0.66895424       0.29445349 </v>
    <v>       0.33373051       0.66901081       0.29476213 </v>
    <v>       0.66662490       0.66732829       0.29460898 </v>
    <v>       0.66579180       0.16479578       0.34629027 </v>
    <v>       0.16907375       0.50555788       0.39951484 </v>
    <v>       0.16611784       0.34374542       0.38807866 </v>
   </varray>
  </structure>
  <varray name="primitive_index" >
   <v type="int" >        1 </v>
   <v type="int" >        2 </v>
   <v type="int" >        3 </v>
   <v type="int" >        4 </v>
   <v type="int" >        5 </v>
   <v type="int" >        6 </v>
   <v type="int" >        7 </v>
   <v type="int" >        8 </v>
   <v type="int" >        9 </v>
   <v type="int" >       10 </v>
   <v type="int" >       11 </v>
   <v type="int" >       12 </v>
   <v type="int" >       13 </v>
   <v type="int" >       14 </v>
   <v type="int" >       15 </v>
   <v type="int" >       16 </v>
   <v type="int" >       17 </v>
   <v type="int" >       18 </v>
   <v type="int" >       19 </v>
   <v type="int" >       20 </v>
   <v type="int" >       21 </v>
   <v type="int" >       22 </v>
   <v type="int" >       23 </v>
   <v type="int" >       24 </v>
   <v type="int" >       25 </v>
   <v type="int" >       26 </v>
   <v type="int" >       27 </v>
   <v type="int" >       28 </v>
   <v type="int" >       29 </v>
   <v type="int" >       30 </v>
   <v type="int" >       31 </v>
   <v type="int" >       32 </v>
   <v type="int" >       33 </v>
   <v type="int" >       34 </v>
   <v type="int" >       35 </v>
   <v type="int" >       36 </v>
   <v type="int" >       37 </v>
   <v type="int" >       38 </v>
   <v type="int" >       39 </v>
  </varray>
 </primitive_cell>
 <kpoints>
  <generation param="Monkhorst-Pack">
   <v type="int" name="divisions">       2        2        1 </v>
   <v name="usershift">      0.00000000       0.00000000       0.00000000 </v>
   <v name="genvec1">      0.50000000       0.00000000       0.00000000 </v>
   <v name="genvec2">      0.00000000       0.50000000       0.00000000 </v>
   <v name="genvec3">      0.00000000       0.00000000       1.00000000 </v>
   <v name="shift">      0.50000000       0.50000000       0.00000000 </v>
  </generation>
  <varray name="kpointlist" >
   <v>       0.25000000       0.25000000       0.00000000 </v>
   <v>      -0.25000000       0.25000000       0.00000000 </v>
  </varray>
  <varray name="weights" >
   <v>       0.50000000 </v>
   <v>       0.50000000 </v>
  </varray>
 </kpoints>
 <parameters>
  <separator name="general" >
   <i type="string" name="SYSTEM">unknown system</i>
   <i type="logical" name="LCOMPAT"> F  </i>
  </separator>
  <separator name="electronic" >
   <i type="string" name="PREC">accura</i>
   <i name="ENMAX">    400.00000000</i>
   <i name="ENAUG">    416.23000000</i>
   <i name="EDIFF">      0.00010000</i>
   <i type="int" name="IALGO">    68</i>
   <i type="int" name="IWAVPR">    10</i>
   <i type="int" name="NBANDS">   220</i>
   <i type="int" name="NBANDSLOW">    -1</i>
   <i type="int" name="NBANDSHIGH">    -1</i>
   <i name="NELECT">    368.00000000</i>
   <i type="int" name="TURBO">     0</i>
   <i type="int" name="IRESTART">     0</i>
   <i type="int" name="NREBOOT">     0</i>
   <i type="int" name="NMIN">     0</i>
   <i name="EREF">      0.00000000</i>
   <separator name="electronic smearing" >
    <i type="int" name="ISMEAR">     1</i>
    <i name="SIGMA">      0.10000000</i>
    <i name="KSPACING">      0.50000000</i>
    <i type="logical" name="KGAMMA"> T  </i>
    <i type="logical" name="KBLOWUP"> T  </i>
   </separator>
   <separator name="electronic projectors" >
    <i type="logical" name="LREAL"> T  </i>
    <v name="ROPT">     -0.00025000     -0.00025000     -0.00025000</v>
    <i type="int" name="LMAXPAW">  -100</i>
    <i type="int" name="LMAXMIX">     2</i>
    <i type="logical" name="NLSPLINE"> F  </i>
   </separator>
   <separator name="electronic startup" >
    <i type="int" name="ISTART">     0</i>
    <i type="int" name="ICHARG">     2</i>
    <i type="int" name="INIWAV">     1</i>
   </separator>
   <separator name="electronic spin" >
    <i type="int" name="ISPIN">     1</i>
    <i type="logical" name="LNONCOLLINEAR"> F  </i>
    <v name="MAGMOM">      1.00000000      1.00000000      1.00000000      1.00000000      1.00000000      1.00000000      1.00000000      1.00000000      1.00000000      1.00000000      1.00000000      1.00000000      1.00000000      1.00000000      1.00000000      1.00000000      1.00000000      1.00000000      1.00000000      1.00000000
      1.00000000      1.00000000      1.00000000      1.00000000      1.00000000      1.00000000      1.00000000      1.00000000      1.00000000      1.00000000      1.00000000      1.00000000      1.00000000      1.00000000      1.00000000      1.00000000      1.00000000      1.00000000      1.00000000</v>
    <i name="NUPDOWN">     -1.00000000</i>
    <i type="logical" name="LSORBIT"> F  </i>
    <v name="SAXIS">      0.00000000      0.00000000      1.00000000</v>
    <i type="logical" name="LSPIRAL"> F  </i>
    <v name="QSPIRAL">      0.00000000      0.00000000      0.00000000</v>
    <i type="logical" name="LZEROZ"> F  </i>
   </separator>
   <separator name="electronic exchange-correlation" >
    <i type="logical" name="LASPH"> F  </i>
   </separator>
   <separator name="electronic convergence" >
    <i type="int" name="NELM">    60</i>
    <i type="int" name="NELMDL">    -5</i>
    <i type="int" name="NELMIN">     2</i>
    <i name="ENINI">    400.00000000</i>
    <separator name="electronic convergence detail" >
     <i type="logical" name="LDIAG"> T  </i>
     <i type="logical" name="LSUBROT"> F  </i>
     <i name="WEIMIN">      0.00000000</i>
     <i name="EBREAK">      0.00000011</i>
     <i name="DEPER">      0.30000000</i>
     <i type="int" name="NRMM">     4</i>
     <i name="TIME">      0.40000000</i>
    </separator>
   </separator>
   <separator name="electronic mixer" >
    <i name="AMIX">      0.40000000</i>
    <i name="BMIX">      1.00000000</i>
    <i name="AMIN">      0.10000000</i>
    <i name="AMIX_MAG">      1.60000000</i>
    <i name="BMIX_MAG">      1.00000000</i>
    <separator name="electronic mixer details" >
     <i type="int" name="IMIX">     4</i>
     <i type="logical" name="MIXFIRST"> F  </i>
     <i type="int" name="MAXMIX">   -45</i>
     <i name="WC">    100.00000000</i>
     <i type="int" name="INIMIX">     1</i>
     <i type="int" name="MIXPRE">     1</i>
     <i type="int" name="MREMOVE">     5</i>
    </separator>
   </separator>
   <separator name="electronic dipolcorrection" >
    <i type="logical" name="LDIPOL"> T  </i>
    <i type="logical" name="LMONO"> F  </i>
    <i type="int" name="IDIPOL">     3</i>
    <i name="EPSILON">      1.00000000</i>
    <v name="DIPOL">   -100.00000000   -100.00000000   -100.00000000</v>
    <i name="EFIELD">      0.00000000</i>
    <i type="logical" name="LVACPOTAV"> F  </i>
   </separator>
  </separator>
  <separator name="grids" >
   <i type="int" name="NGX">    56</i>
   <i type="int" name="NGY">    56</i>
   <i type="int" name="NGZ">   140</i>
   <i type="int" name="NGXF">   112</i>
   <i type="int" name="NGYF">   112</i>
   <i type="int" name="NGZF">   280</i>
   <i type="logical" name="ADDGRID"> F  </i>
  </separator>
  <separator name="ionic" >
   <i type="int" name="NSW">     0</i>
   <i type="int" name="IBRION">    -1</i>
   <i type="int" name="MDALGO">     0</i>
   <i type="int" name="ISIF">     2</i>
   <i name="PSTRESS">      0.00000000</i>
   <i name="EDIFFG">     -0.03000000</i>
   <i type="int" name="NFREE">     0</i>
   <i name="POTIM">      0.50000000</i>
   <i name="SMASS">     -3.00000000</i>
   <i name="SCALEE">      1.00000000</i>
  </separator>
  <separator name="ionic md" >
   <i name="TEBEG">      0.00010000</i>
   <i name="TEEND">      0.00010000</i>
   <i type="int" name="NBLOCK">     1</i>
   <i type="int" name="KBLOCK">     1</i>
   <i type="int" name="NPACO">   256</i>
   <i name="APACO">     10.00000000</i>
  </separator>
  <separator name="symmetry" >
   <i type="int" name="ISYM">     0</i>
   <i name="SYMPREC">      0.00001000</i>
  </separator>
  <separator name="dos" >
   <i type="int" name="LORBIT">     0</i>
   <v name="RWIGS">     -1.00000000     -1.00000000     -1.00000000</v>
   <i type="int" name="NEDOS">   301</i>
   <i name="EMIN">     10.00000000</i>
   <i name="EMAX">    -10.00000000</i>
   <i name="EFERMI">      0.00000000</i>
  </separator>
  <separator name="writing" >
   <i type="int" name="NWRITE">     2</i>
   <i type="logical" name="LWAVE"> F  </i>
   <i type="logical" name="LDOWNSAMPLE"> F  </i>
   <i type="logical" name="LCHARG"> F  </i>
   <i type="logical" name="LPARD"> F  </i>
   <i type="logical" name="LVTOT"> F  </i>
   <i type="logical" name="LVHAR"> F  </i>
   <i type="logical" name="LELF"> F  </i>
   <i type="logical" name="LOPTICS"> F  </i>
   <v name="STM">      0.00000000      0.00000000      0.00000000      0.00000000      0.00000000      0.00000000      0.00000000</v>
  </separator>
  <separator name="performance" >
   <i type="int" name="NPAR">     2</i>
   <i type="int" name="NSIM">     4</i>
   <i type="int" name="NBLK">    -1</i>
   <i type="logical" name="LPLANE"> T  </i>
   <i type="logical" name="LSCALAPACK"> T  </i>
   <i type="logical" name="LSCAAWARE"> F  </i>
   <i type="logical" name="LSCALU"> F  </i>
   <i type="logical" name="LASYNC"> F  </i>
   <i type="logical" name="LORBITALREAL"> F  </i>
  </separator>
  <separator name="miscellaneous" >
   <i type="int" name="IDIOT">     3</i>
   <i type="int" name="PHON_NSTRUCT">    -1</i>
   <i type="logical" name="LMUSIC"> F  </i>
   <v name="POMASS">    106.42000000      1.00000000     32.06600000</v>
   <v name="DARWINR">      0.00000000      0.00000000      0.00000000</v>
   <v name="DARWINV">      1.00000000      1.00000000      1.00000000</v>
   <i type="logical" name="LCORR"> T  </i>
  </separator>
  <i type="logical" name="GGA_COMPAT"> T  </i>
  <i type="logical" name="LBERRY"> F  </i>
  <i type="int" name="ICORELEVEL">     0</i>
  <i type="logical" name="LDAU"> F  </i>
  <i type="int" name="I_CONSTRAINED_M">     0</i>
  <separator name="electronic exchange-correlation" >
   <i type="string" name="GGA    ">PE</i>
   <i type="string" name="XC_C">1</i>
   <i type="int" name="VOSKOWN">     0</i>
   <i type="logical" name="LHFCALC"> F  </i>
   <i type="string" name="PRECFOCK"></i>
   <i type="logical" name="LSYMGRAD"> F  </i>
   <i type="logical" name="LHFONE"> F  </i>
   <i type="logical" name="LRHFCALC"> F  </i>
   <i type="logical" name="LTHOMAS"> F  </i>
   <i type="logical" name="LMODELHF"> F  </i>
   <i type="logical" name="LFOCKACE"> F  </i>
   <i name="ENCUT4O">     -1.00000000</i>
   <i type="int" name="EXXOEP">     0</i>
   <i type="int" name="FOURORBIT">     0</i>
   <i name="AEXX">      0.00000000</i>
   <i name="HFALPHA">      0.00000000</i>
   <i name="MCALPHA">      0.00000000</i>
   <i name="ALDAX">      1.00000000</i>
   <i name="AGGAX">      1.00000000</i>
   <i name="AMGGAX">      1.00000000</i>
   <i name="ALDAC">      1.00000000</i>
   <i name="AGGAC">      1.00000000</i>
   <i name="AMGGAC">      1.00000000</i>
   <i type="int" name="NKREDX">     1</i>
   <i type="int" name="NKREDY">     1</i>
   <i type="int" name="NKREDZ">     1</i>
   <i type="logical" name="SHIFTRED"> F  </i>
   <i type="logical" name="ODDONLY"> F  </i>
   <i type="logical" name="EVENONLY"> F  </i>
   <i type="int" name="LMAXFOCK">     0</i>
   <i type="int" name="NMAXFOCKAE">     0</i>
   <i type="logical" name="LFOCKAEDFT"> F  </i>
   <i name="HFSCREEN">      0.00000000</i>
   <i name="HFSCREENC">      0.00000000</i>
   <i type="int" name="NBANDSGWLOW">     0</i>
  </separator>
  <separator name="vdW DFT" >
   <i type="logical" name="LUSE_VDW"> F  </i>
   <i type="int" name="IVDW_NL">    -1</i>
   <i type="logical" name="LSPIN_VDW"> F  </i>
   <i name="ZAB_VDW">     -0.84910000</i>
   <i name="GAMMA_VDW">      1.39626340</i>
   <i name="ALPHA_VDW">      0.00000000</i>
   <i name="PARAM1">      0.12340000</i>
   <i name="PARAM2">      1.00000000</i>
   <i name="BPARAM">      6.30000000</i>
   <i name="CPARAM">      0.00930000</i>
  </separator>
  <separator name="model GW" >
   <i type="int" name="MODEL_GW">     0</i>
   <i name="MODEL_EPS0">     21.39749142</i>
   <i name="MODEL_ALPHA">      1.00000000</i>
  </separator>
  <separator name="linear response parameters" >
   <i type="logical" name="LEPSILON"> F  </i>
   <i type="logical" name="LRPA"> F  </i>
   <i type="logical" name="LNABLA"> F  </i>
   <i type="logical" name="LVEL"> F  </i>
   <i name="CSHIFT">      0.10000000</i>
   <i name="OMEGAMAX">     -1.00000000</i>
   <i name="DEG_THRESHOLD">      0.00200000</i>
   <i name="RTIME">     -0.10000000</i>
   <i name="WPLASMAI">      0.00000000</i>
   <v name="DFIELD">      0.00000000      0.00000000      0.00000000</v>
   <v name="WPLASMA">      0.00000000      0.00000000      0.00000000      0.00000000      0.00000000      0.00000000      0.00000000      0.00000000      0.00000000</v>
  </separator>
  <separator name="orbital magnetization" >
   <i type="logical" name="NUCIND"> F  </i>
   <v name="MAGPOS">      0.00000000      0.00000000      0.00000000</v>
   <i type="logical" name="LNICSALL"> T  </i>
   <i type="logical" name="ORBITALMAG"> F  </i>
   <i type="logical" name="LMAGBLOCH"> F  </i>
   <i type="logical" name="LCHIMAG"> F  </i>
   <i type="logical" name="LGAUGE"> T  </i>
   <i type="int" name="MAGATOM">     0</i>
   <v name="MAGDIPOL">      0.00000000      0.00000000      0.00000000</v>
   <v name="AVECCONST">      0.00000000      0.00000000      0.00000000</v>
  </separator>
  <separator name="response functions" >
   <i type="logical" name="LALL_IN_ONE"> F  </i>
   <i type="int" name="IALL_IN_ONE">    -1</i>
   <i type="int" name="NBANDS_WAVE">    -1</i>
   <i type="logical" name="LFINITE_TEMPERATURE"> F  </i>
   <i type="logical" name="LADDER"> F  </i>
   <i type="logical" name="LRPAFORCE"> F  </i>
   <i type="logical" name="LFXC"> F  </i>
   <i type="logical" name="LHARTREE"> T  </i>
   <i type="int" name="IBSE">     0</i>
   <v type="int" name="KPOINT">    -1     0     0     0</v>
   <i type="logical" name="LTCTC"> F  </i>
   <i type="logical" name="LTCTE"> F  </i>
   <i type="logical" name="LTETE"> F  </i>
   <i type="logical" name="LTRIPLET"> F  </i>
   <i type="logical" name="LFXCEPS"> F  </i>
   <i type="logical" name="LFXHEG"> F  </i>
   <i type="int" name="NATURALO">     2</i>
   <i type="logical" name="LHOLEGF"> F  </i>
   <i type="logical" name="L2ORDER"> F  </i>
   <i type="logical" name="LDMP1"> F  </i>
   <i type="logical" name="LMP2LT"> F  </i>
   <i type="logical" name="LSMP2LT"> F  </i>
   <i type="logical" name="LGWLF"> F  </i>
   <i name="ENCUTGW">     -1.60000002</i>
   <i name="ENCUTGWSOFT">     -1.60000002</i>
   <i name="ENCUTLF">     -1.00000000</i>
   <i type="logical" name="ESF_SPLINES"> F  </i>
   <i name="ESF_CONV">      0.01000000</i>
   <i type="int" name="ESF_NINTER">    15</i>
   <i type="int" name="LMAXMP2">    -1</i>
   <i name="SCISSOR">      0.00000000</i>
   <i type="int" name="NOMEGA">     0</i>
   <i type="int" name="NOMEGAR">     0</i>
   <i type="int" name="NBANDSGW">    -1</i>
   <i type="int" name="NBANDSO">    -1</i>
   <i type="int" name="NBANDSV">    -1</i>
   <i type="int" name="NELMGW">     1</i>
   <i type="int" name="NELMHF">     1</i>
   <i type="int" name="DIM">     3</i>
   <i type="int" name="IESPILON">     4</i>
   <i type="int" name="ANTIRES">     0</i>
   <i name="OMEGAMAX">    -30.00000000</i>
   <i name="OMEGAMIN">    -30.00000000</i>
   <i name="OMEGATL">   -200.00000000</i>
   <i type="int" name="OMEGAGRID">     0</i>
   <i name="CSHIFT">     -0.10000000</i>
   <i type="logical" name="LSELFENERGY"> F  </i>
   <i type="logical" name="LSPECTRAL"> F  </i>
   <i type="logical" name="LSPECTRALGW"> F  </i>
   <i type="logical" name="LSINGLES"> F  </i>
   <i type="logical" name="LFERMIGW"> F  </i>
   <i type="logical" name="ODDONLYGW"> F  </i>
   <i type="logical" name="EVENONLYGW"> F  </i>
   <i type="int" name="NKREDLFX">     1</i>
   <i type="int" name="NKREDLFY">     1</i>
   <i type="int" name="NKREDLFZ">     1</i>
   <i type="int" name="MAXMEM">  2800</i>
   <i type="int" name="TELESCOPE">     0</i>
   <i type="int" name="NTAUPAR">    -1</i>
   <i type="int" name="NOMEGAPAR">    -1</i>
   <i name="DAMP_NEWTON">      0.80000001</i>
   <i name="LAMBDA">      1.00000000</i>
  </separator>
  <separator name="External order field" >
   <i name="OFIELD_KAPPA">      0.00000000</i>
   <v name="OFIELD_K">      0.00000000      0.00000000      0.00000000</v>
   <i name="OFIELD_Q6_NEAR">      0.00000000</i>
   <i name="OFIELD_Q6_FAR">      0.00000000</i>
   <i name="OFIELD_A">      0.00000000</i>
  </separator>
  <separator name="optional k-points parameters" >
   <i type="int" name="KPOINTS_OPT_MODE">     1</i>
   <i type="logical" name="LKPOINTS_OPT"> F  </i>
  </separator>
 </parameters>
 <atominfo>
  <atoms>      39 </atoms>
  <types>       3 </types>
  <array name="atoms" >
   <dimension dim="1">ion</dimension>
   <field type="string">element</field>
   <field type="int">atomtype</field>
   <set>
    <rc><c>Pd</c><c>   1</c></rc>
    <rc><c>Pd</c><c>   1</c></rc>
    <rc><c>Pd</c><c>   1</c></rc>
    <rc><c>Pd</c><c>   1</c></rc>
    <rc><c>Pd</c><c>   1</c></rc>
    <rc><c>Pd</c><c>   1</c></rc>
    <rc><c>Pd</c><c>   1</c></rc>
    <rc><c>Pd</c><c>   1</c></rc>
    <rc><c>Pd</c><c>   1</c></rc>
    <rc><c>Pd</c><c>   1</c></rc>
    <rc><c>Pd</c><c>   1</c></rc>
    <rc><c>Pd</c><c>   1</c></rc>
    <rc><c>Pd</c><c>   1</c></rc>
    <rc><c>Pd</c><c>   1</c></rc>
    <rc><c>Pd</c><c>   1</c></rc>
    <rc><c>Pd</c><c>   1</c></rc>
    <rc><c>Pd</c><c>   1</c></rc>
    <rc><c>Pd</c><c>   1</c></rc>
    <rc><c>Pd</c><c>   1</c></rc>
    <rc><c>Pd</c><c>   1</c></rc>
    <rc><c>Pd</c><c>   1</c></rc>
    <rc><c>Pd</c><c>   1</c></rc>
    <rc><c>Pd</c><c>   1</c></rc>
    <rc><c>Pd</c><c>   1</c></rc>
    <rc><c>Pd</c><c>   1</c></rc>
    <rc><c>Pd</c><c>   1</c></rc>
    <rc><c>Pd</c><c>   1</c></rc>
    <rc><c>Pd</c><c>   1</c></rc>
    <rc><c>Pd</c><c>   1</c></rc>
    <rc><c>Pd</c><c>   1</c></rc>
    <rc><c>Pd</c><c>   1</c></rc>
    <rc><c>Pd</c><c>   1</c></rc>
    <rc><c>Pd</c><c>   1</c></rc>
    <rc><c>Pd</c><c>   1</c></rc>
    <rc><c>Pd</c><c>   1</c></rc>
    <rc><c>Pd</c><c>   1</c></rc>
    <rc><c>H </c><c>   2</c></rc>
    <rc><c>H </c><c>   2</c></rc>
    <rc><c>S </c><c>   3</c></rc>
   </set>
  </array>
  <array name="atomtypes" >
   <dimension dim="1">type</dimension>
   <field type="int">atomspertype</field>
   <field type="string">element</field>
   <field>mass</field>
   <field>valence</field>
   <field type="string">pseudopotential</field>
   <set>
    <rc><c>  36</c><c>Pd</c><c>    106.42000000</c><c>     10.00000000</c><c>  PAW_PBE Pd 04Jan2005                  </c></rc>
    <rc><c>   2</c><c>H </c><c>      1.00000000</c><c>      1.00000000</c><c>  PAW_PBE H 15Jun2001                   </c></rc>
    <rc><c>   1</c><c>S </c><c>     32.06600000</c><c>      6.00000000</c><c>  PAW_PBE S 06Sep2000                   </c></rc>
   </set>
  </array>
 </atominfo>
 <structure name="initialpos" >
  <crystal>
   <varray name="basis" >
    <v>       8.35800215       0.00000000       0.00000000 </v>
    <v>       0.00000000       8.35800215       0.00000000 </v>
    <v>       0.00000000       0.00000000      19.91000000 </v>
   </varray>
   <i name="volume">   1390.83694200 </i>
   <varray name="rec_basis" >
    <v>       0.11964582       0.00000000       0.00000000 </v>
    <v>       0.00000000       0.11964582       0.00000000 </v>
    <v>       0.00000000       0.00000000       0.05022602 </v>
   </varray>
  </crystal>
  <varray name="positions" >
   <v>       0.16666667       0.16666667       0.00000000 </v>
   <v>       0.50000000       0.16666667       0.00000000 </v>
   <v>       0.83333333       0.16666667       0.00000000 </v>
   <v>       0.16666667       0.50000000       0.00000000 </v>
   <v>       0.50000000       0.50000000       0.00000000 </v>
   <v>       0.83333333       0.50000000       0.00000000 </v>
   <v>       0.16666667       0.83333333       0.00000000 </v>
   <v>       0.50000000       0.83333333       0.00000000 </v>
   <v>       0.83333333       0.83333333       0.00000000 </v>
   <v>       0.00000000       0.00000000       0.09894525 </v>
   <v>       0.33333333       0.00000000       0.09894525 </v>
   <v>       0.66666667       0.00000000       0.09894525 </v>
   <v>       0.00000000       0.33333333       0.09894525 </v>
   <v>       0.33333333       0.33333333       0.09894525 </v>
   <v>       0.66666667       0.33333333       0.09894525 </v>
   <v>       0.00000000       0.66666667       0.09894525 </v>
   <v>       0.33333333       0.66666667       0.09894525 </v>
   <v>       0.66666667       0.66666667       0.09894525 </v>
   <v>       0.16688959       0.16779149       0.19802575 </v>
   <v>       0.49967507       0.16878359       0.19781416 </v>
   <v>       0.83433343       0.16800372       0.19794516 </v>
   <v>       0.16692246       0.49820285       0.19814131 </v>
   <v>       0.49933831       0.49836319       0.19751987 </v>
   <v>       0.83360944       0.49787523       0.19722598 </v>
   <v>       0.16667272       0.83337212       0.19614780 </v>
   <v>       0.50046039       0.83379139       0.19649430 </v>
   <v>       0.83280403       0.83369551       0.19635022 </v>
   <v>       0.00076326       0.99618655       0.29506403 </v>
   <v>       0.33296916       0.99682044       0.29474843 </v>
   <v>       0.66671796       0.99875970       0.29622810 </v>
   <v>       0.99144054       0.33461360       0.29994063 </v>
   <v>       0.34261135       0.33377793       0.30064731 </v>
   <v>       0.66706978       0.33419106       0.29820651 </v>
   <v>       0.99878779       0.66895424       0.29445349 </v>
   <v>       0.33373051       0.66901081       0.29476213 </v>
   <v>       0.66662490       0.66732829       0.29460898 </v>
   <v>       0.66579180       0.16479578       0.34629027 </v>
   <v>       0.16907375       0.50555788       0.39951484 </v>
   <v>       0.16611784       0.34374542       0.38807866 </v>
  </varray>
  <varray name="selective"  type="logical" >
   <v type="logical" >  F  F  F </v>
   <v type="logical" >  F  F  F </v>
   <v type="logical" >  F  F  F </v>
   <v type="logical" >  F  F  F </v>
   <v type="logical" >  F  F  F </v>
   <v type="logical" >  F  F  F </v>
   <v type="logical" >  F  F  F </v>
   <v type="logical" >  F  F  F </v>
   <v type="logical" >  F  F  F </v>
   <v type="logical" >  F  F  F </v>
   <v type="logical" >  F  F  F </v>
   <v type="logical" >  F  F  F </v>
   <v type="logical" >  F  F  F </v>
   <v type="logical" >  F  F  F </v>
   <v type="logical" >  F  F  F </v>
   <v type="logical" >  F  F  F </v>
   <v type="logical" >  F  F  F </v>
   <v type="logical" >  F  F  F </v>
   <v type="logical" >  T  T  T </v>
   <v type="logical" >  T  T  T </v>
   <v type="logical" >  T  T  T </v>
   <v type="logical" >  T  T  T </v>
   <v type="logical" >  T  T  T </v>
   <v type="logical" >  T  T  T </v>
   <v type="logical" >  T  T  T </v>
   <v type="logical" >  T  T  T </v>
   <v type="logical" >  T  T  T </v>
   <v type="logical" >  T  T  T </v>
   <v type="logical" >  T  T  T </v>
   <v type="logical" >  T  T  T </v>
   <v type="logical" >  T  T  T </v>
   <v type="logical" >  T  T  T </v>
   <v type="logical" >  T  T  T </v>
   <v type="logical" >  T  T  T </v>
   <v type="logical" >  T  T  T </v>
   <v type="logical" >  T  T  T </v>
   <v type="logical" >  T  T  T </v>
   <v type="logical" >  T  T  T </v>
   <v type="logical" >  T  T  T </v>
  </varray>
  <nose>
   <v>      -3.00000000       0.00000000       0.00010000       0.00010000 </v>
  </nose>
 </structure>
 <calculation>
  <scstep>
   <time name="dav">    0.95    0.95</time>
   <time name="total">    1.00    1.01</time>
   <dipole>
    <v name="dipole">      0.00000000       0.00000000      -0.00004628 </v>
    <i name="Tr[quadrupol]">  -4463.90288774 </i>
    <i name="Echarged">      0.00000000 </i>
    <i name="Edipol_quadrupol">      0.00000000 </i>
    <i name="Eion">      0.00000000 </i>
   </dipole>
   <energy>
    <i name="alphaZ">    628.75263800 </i>
    <i name="ewald">  75968.54115270 </i>
    <i name="hartreedc">-106698.93801084 </i>
    <i name="XCdc">  -1046.07688126 </i>
    <i name="pawpsdc">  29264.33151030 </i>
    <i name="pawaedc"> -27021.15649540 </i>
    <i name="eentropy">     -0.01875552 </i>
    <i name="bandstr">   1567.90759034 </i>
    <i name="atom">  29452.55580095 </i>
    <i name="e_fr_energy">   2115.89854926 </i>
    <i name="e_wo_entrp">   2115.91730478 </i>
    <i name="e_0_energy">   2115.90480110 </i>
   </energy>
  </scstep>
  <scstep>
   <time name="dav">    0.95    0.96</time>
   <time name="total">    0.95    0.96</time>
   <dipole>
    <v name="dipole">      0.00000000       0.00000000      -0.00004628 </v>
    <i name="Tr[quadrupol]">  -4463.90288774 </i>
    <i name="Echarged">      0.00000000 </i>
    <i name="Edipol_quadrupol">      0.00000000 </i>
    <i name="Eion">      0.00000000 </i>
   </dipole>
   <energy>
    <i name="e_fr_energy">    -62.32514512 </i>
    <i name="e_wo_entrp">    -62.32870475 </i>
    <i name="e_0_energy">    -62.32633166 </i>
   </energy>
  </scstep>
  <scstep>
   <time name="dav">    0.99    0.99</time>
   <time name="total">    0.99    1.00</time>
   <dipole>
    <v name="dipole">      0.00000000       0.00000000      -0.00004628 </v>
    <i name="Tr[quadrupol]">  -4463.90288774 </i>
    <i name="Echarged">      0.00000000 </i>
    <i name="Edipol_quadrupol">      0.00000000 </i>
    <i name="Eion">      0.00000000 </i>
   </dipole>
   <energy>
    <i name="e_fr_energy">   -191.46377381 </i>
    <i name="e_wo_entrp">   -191.40699400 </i>
    <i name="e_0_energy">   -191.44484721 </i>
   </energy>
  </scstep>
  <scstep>
   <time name="dav">    0.99    1.00</time>
   <time name="total">    0.99    1.00</time>
   <dipole>
    <v name="dipole">      0.00000000       0.00000000      -0.00004628 </v>
    <i name="Tr[quadrupol]">  -4463.90288774 </i>
    <i name="Echarged">      0.00000000 </i>
    <i name="Edipol_quadrupol">      0.00000000 </i>
    <i name="Eion">      0.00000000 </i>
   </dipole>
   <energy>
    <i name="e_fr_energy">   -196.62018139 </i>
    <i name="e_wo_entrp">   -196.54954788 </i>
    <i name="e_0_energy">   -196.59663689 </i>
   </energy>
  </scstep>
  <scstep>
   <time name="dav">    1.03    1.04</time>
   <time name="total">    1.08    1.09</time>
   <dipole>
    <v name="dipole">      0.00000000       0.00000000      -0.00004628 </v>
    <i name="Tr[quadrupol]">  -4463.90288774 </i>
    <i name="Echarged">      0.00000000 </i>
    <i name="Edipol_quadrupol">      0.00000000 </i>
    <i name="Eion">      0.00000000 </i>
   </dipole>
   <energy>
    <i name="e_fr_energy">   -196.79338699 </i>
    <i name="e_wo_entrp">   -196.72263642 </i>
    <i name="e_0_energy">   -196.76980346 </i>
   </energy>
  </scstep>
  <scstep>
   <time name="diag">    0.15    0.15</time>
   <time name="diis">    0.53    0.54</time>
   <time name="orth">    0.02    0.02</time>
   <time name="total">    0.79    0.80</time>
   <dipole>
    <v name="dipole">      0.00000000       0.00000000      -0.24868004 </v>
    <i name="Tr[quadrupol]">  -4467.28695655 </i>
    <i name="Echarged">      0.00000000 </i>
    <i name="Edipol_quadrupol">      0.00000000 </i>
    <i name="Eion">      0.00000000 </i>
   </dipole>
   <energy>
    <i name="e_fr_energy">   -190.24539527 </i>
    <i name="e_wo_entrp">   -190.21549633 </i>
    <i name="e_0_energy">   -190.23542896 </i>
   </energy>
  </scstep>
  <scstep>
   <time name="diag">    0.15    0.15</time>
   <time name="diis">    0.64    0.65</time>
   <time name="orth">    0.02    0.02</time>
   <time name="total">    0.90    0.91</time>
   <dipole>
    <v name="dipole">      0.00000000       0.00000000       2.44668563 </v>
    <i name="Tr[quadrupol]">  -4469.78606110 </i>
    <i name="Echarged">      0.00000000 </i>
    <i name="Edipol_quadrupol">      0.00000000 </i>
    <i name="Eion">      0.00000000 </i>
   </dipole>
   <energy>
    <i name="e_fr_energy">   -285.73580095 </i>
    <i name="e_wo_entrp">   -285.74031357 </i>
    <i name="e_0_energy">   -285.73730516 </i>
   </energy>
  </scstep>
  <scstep>
   <time name="diag">    0.15    0.15</time>
   <time name="diis">    0.58    0.58</time>
   <time name="orth">    0.02    0.02</time>
   <time name="total">    0.84    0.84</time>
   <dipole>
    <v name="dipole">      0.00000000       0.00000000       0.10908862 </v>
    <i name="Tr[quadrupol]">  -4472.49424109 </i>
    <i name="Echarged">      0.00000000 </i>
    <i name="Edipol_quadrupol">      0.00000000 </i>
    <i name="Eion">      0.00000000 </i>
   </dipole>
   <energy>
    <i name="e_fr_energy">   -204.11525885 </i>
    <i name="e_wo_entrp">   -204.11917334 </i>
    <i name="e_0_energy">   -204.11656368 </i>
   </energy>
  </scstep>
  <scstep>
   <time name="diag">    0.15    0.15</time>
   <time name="diis">    0.56    0.56</time>
   <time name="orth">    0.02    0.02</time>
   <time name="total">    0.82    0.82</time>
   <dipole>
    <v name="dipole">      0.00000000       0.00000000      -0.11456751 </v>
    <i name="Tr[quadrupol]">  -4470.30774327 </i>
    <i name="Echarged">      0.00000000 </i>
    <i name="Edipol_quadrupol">      0.00000000 </i>
    <i name="Eion">      0.00000000 </i>
   </dipole>
   <energy>
    <i name="e_fr_energy">   -189.69610812 </i>
    <i name="e_wo_entrp">   -189.68790877 </i>
    <i name="e_0_energy">   -189.69337500 </i>
   </energy>
  </scstep>
  <scstep>
   <time name="diag">    0.15    0.15</time>
   <time name="diis">    0.56    0.56</time>
   <time name="orth">    0.02    0.02</time>
   <time name="total">    0.81    0.82</time>
   <dipole>
    <v name="dipole">      0.00000000       0.00000000      -0.13608326 </v>
    <i name="Tr[quadrupol]">  -4470.56188662 </i>
    <i name="Echarged">      0.00000000 </i>
    <i name="Edipol_quadrupol">      0.00000000 </i>
    <i name="Eion">      0.00000000 </i>
   </dipole>
   <energy>
    <i name="e_fr_energy">   -189.01029935 </i>
    <i name="e_wo_entrp">   -188.95361565 </i>
    <i name="e_0_energy">   -188.99140478 </i>
   </energy>
  </scstep>
  <scstep>
   <time name="diag">    0.15    0.15</time>
   <time name="diis">    0.55    0.55</time>
   <time name="orth">    0.02    0.02</time>
   <time name="total">    0.81    0.81</time>
   <dipole>
    <v name="dipole">      0.00000000       0.00000000      -0.05461439 </v>
    <i name="Tr[quadrupol]">  -4471.68544852 </i>
    <i name="Echarged">      0.00000000 </i>
    <i name="Edipol_quadrupol">      0.00000000 </i>
    <i name="Eion">      0.00000000 </i>
   </dipole>
   <energy>
    <i name="e_fr_energy">   -188.27735286 </i>
    <i name="e_wo_entrp">   -188.23338430 </i>
    <i name="e_0_energy">   -188.26269667 </i>
   </energy>
  </scstep>
  <scstep>
   <time name="diag">    0.15    0.15</time>
   <time name="diis">    0.56    0.57</time>
   <time name="orth">    0.02    0.02</time>
   <time name="total">    0.82    0.82</time>
   <dipole>
    <v name="dipole">      0.00000000       0.00000000      -0.09837499 </v>
    <i name="Tr[quadrupol]">  -4471.53849743 </i>
    <i name="Echarged">      0.00000000 </i>
    <i name="Edipol_quadrupol">      0.00000000 </i>
    <i name="Eion">      0.00000000 </i>
   </dipole>
   <energy>
    <i name="e_fr_energy">   -188.42063076 </i>
    <i name="e_wo_entrp">   -188.39813220 </i>
    <i name="e_0_energy">   -188.41313124 </i>
   </energy>
  </scstep>
  <scstep>
   <time name="diag">    0.15    0.15</time>
   <time name="diis">    0.55    0.56</time>
   <time name="orth">    0.02    0.02</time>
   <time name="total">    0.81    0.81</time>
   <dipole>
    <v name="dipole">      0.00000000       0.00000000      -0.06273157 </v>
    <i name="Tr[quadrupol]">  -4472.22047628 </i>
    <i name="Echarged">      0.00000000 </i>
    <i name="Edipol_quadrupol">      0.00000000 </i>
    <i name="Eion">      0.00000000 </i>
   </dipole>
   <energy>
    <i name="e_fr_energy">   -188.03215123 </i>
    <i name="e_wo_entrp">   -187.98539218 </i>
    <i name="e_0_energy">   -188.01656488 </i>
   </energy>
  </scstep>
  <scstep>
   <time name="diag">    0.15    0.15</time>
   <time name="diis">    0.55    0.55</time>
   <time name="orth">    0.02    0.02</time>
   <time name="total">    0.81    0.81</time>
   <dipole>
    <v name="dipole">      0.00000000       0.00000000      -0.07080138 </v>
    <i name="Tr[quadrupol]">  -4472.34052644 </i>
    <i name="Echarged">      0.00000000 </i>
    <i name="Edipol_quadrupol">      0.00000000 </i>
    <i name="Eion">      0.00000000 </i>
   </dipole>
   <energy>
    <i name="e_fr_energy">   -187.81182110 </i>
    <i name="e_wo_entrp">   -187.74014176 </i>
    <i name="e_0_energy">   -187.78792799 </i>
   </energy>
  </scstep>
  <scstep>
   <time name="diag">    0.15    0.15</time>
   <time name="diis">    0.56    0.56</time>
   <time name="orth">    0.02    0.02</time>
   <time name="total">    0.82    0.82</time>
   <dipole>
    <v name="dipole">      0.00000000       0.00000000      -0.06049710 </v>
    <i name="Tr[quadrupol]">  -4472.61498012 </i>
    <i name="Echarged">      0.00000000 </i>
    <i name="Edipol_quadrupol">      0.00000000 </i>
    <i name="Eion">      0.00000000 </i>
   </dipole>
   <energy>
    <i name="e_fr_energy">   -187.77844775 </i>
    <i name="e_wo_entrp">   -187.70312428 </i>
    <i name="e_0_energy">   -187.75333993 </i>
   </energy>
  </scstep>
  <scstep>
   <time name="diag">    0.15    0.15</time>
   <time name="diis">    0.57    0.57</time>
   <time name="orth">    0.02    0.02</time>
   <time name="total">    0.83    0.83</time>
   <dipole>
    <v name="dipole">      0.00000000       0.00000000      -0.05492002 </v>
    <i name="Tr[quadrupol]">  -4472.77630080 </i>
    <i name="Echarged">      0.00000000 </i>
    <i name="Edipol_quadrupol">      0.00000000 </i>
    <i name="Eion">      0.00000000 </i>
   </dipole>
   <energy>
    <i name="e_fr_energy">   -187.76001088 </i>
    <i name="e_wo_entrp">   -187.68241181 </i>
    <i name="e_0_energy">   -187.73414452 </i>
   </energy>
  </scstep>
  <scstep>
   <time name="diag">    0.15    0.15</time>
   <time name="diis">    0.56    0.56</time>
   <time name="orth">    0.02    0.02</time>
   <time name="total">    0.82    0.82</time>
   <dipole>
    <v name="dipole">      0.00000000       0.00000000      -0.04555778 </v>
    <i name="Tr[quadrupol]">  -4472.99928962 </i>
    <i name="Echarged">      0.00000000 </i>
    <i name="Edipol_quadrupol">      0.00000000 </i>
    <i name="Eion">      0.00000000 </i>
   </dipole>
   <energy>
    <i name="e_fr_energy">   -187.76355519 </i>
    <i name="e_wo_entrp">   -187.68825033 </i>
    <i name="e_0_energy">   -187.73845357 </i>
   </energy>
  </scstep>
  <scstep>
   <time name="diag">    0.15    0.15</time>
   <time name="diis">    0.57    0.58</time>
   <time name="orth">    0.02    0.02</time>
   <time name="total">    0.83    0.83</time>
   <dipole>
    <v name="dipole">      0.00000000       0.00000000      -0.03855915 </v>
    <i name="Tr[quadrupol]">  -4473.41634338 </i>
    <i name="Echarged">      0.00000000 </i>
    <i name="Edipol_quadrupol">      0.00000000 </i>
    <i name="Eion">      0.00000000 </i>
   </dipole>
   <energy>
    <i name="e_fr_energy">   -187.75387763 </i>
    <i name="e_wo_entrp">   -187.67630956 </i>
    <i name="e_0_energy">   -187.72802161 </i>
   </energy>
  </scstep>
  <scstep>
   <time name="diag">    0.15    0.15</time>
   <time name="diis">    0.56    0.57</time>
   <time name="orth">    0.02    0.02</time>
   <time name="total">    0.82    0.82</time>
   <dipole>
    <v name="dipole">      0.00000000       0.00000000      -0.03001970 </v>
    <i name="Tr[quadrupol]">  -4473.76609546 </i>
    <i name="Echarged">      0.00000000 </i>
    <i name="Edipol_quadrupol">      0.00000000 </i>
    <i name="Eion">      0.00000000 </i>
   </dipole>
   <energy>
    <i name="e_fr_energy">   -187.74841631 </i>
    <i name="e_wo_entrp">   -187.67184651 </i>
    <i name="e_0_energy">   -187.72289305 </i>
   </energy>
  </scstep>
  <scstep>
   <time name="diag">    0.15    0.15</time>
   <time name="diis">    0.55    0.55</time>
   <time name="orth">    0.02    0.02</time>
   <time name="total">    0.81    0.81</time>
   <dipole>
    <v name="dipole">      0.00000000       0.00000000      -0.02836668 </v>
    <i name="Tr[quadrupol]">  -4473.89618168 </i>
    <i name="Echarged">      0.00000000 </i>
    <i name="Edipol_quadrupol">      0.00000000 </i>
    <i name="Eion">      0.00000000 </i>
   </dipole>
   <energy>
    <i name="e_fr_energy">   -187.74740993 </i>
    <i name="e_wo_entrp">   -187.66995846 </i>
    <i name="e_0_energy">   -187.72159277 </i>
   </energy>
  </scstep>
  <scstep>
   <time name="diag">    0.15    0.15</time>
   <time name="diis">    0.56    0.57</time>
   <time name="orth">    0.02    0.02</time>
   <time name="total">    0.82    0.83</time>
   <dipole>
    <v name="dipole">      0.00000000       0.00000000      -0.02692266 </v>
    <i name="Tr[quadrupol]">  -4474.09249606 </i>
    <i name="Echarged">      0.00000000 </i>
    <i name="Edipol_quadrupol">      0.00000000 </i>
    <i name="Eion">      0.00000000 </i>
   </dipole>
   <energy>
    <i name="e_fr_energy">   -187.74685606 </i>
    <i name="e_wo_entrp">   -187.66898832 </i>
    <i name="e_0_energy">   -187.72090015 </i>
   </energy>
  </scstep>
  <scstep>
   <time name="diag">    0.15    0.15</time>
   <time name="diis">    0.56    0.57</time>
   <time name="orth">    0.02    0.02</time>
   <time name="total">    0.82    0.83</time>
   <dipole>
    <v name="dipole">      0.00000000       0.00000000      -0.02742776 </v>
    <i name="Tr[quadrupol]">  -4474.23929937 </i>
    <i name="Echarged">      0.00000000 </i>
    <i name="Edipol_quadrupol">      0.00000000 </i>
    <i name="Eion">      0.00000000 </i>
   </dipole>
   <energy>
    <i name="e_fr_energy">   -187.74663959 </i>
    <i name="e_wo_entrp">   -187.66848877 </i>
    <i name="e_0_energy">   -187.72058932 </i>
   </energy>
  </scstep>
  <scstep>
   <time name="diag">    0.15    0.15</time>
   <time name="diis">    0.57    0.58</time>
   <time name="orth">    0.02    0.02</time>
   <time name="total">    0.83    0.84</time>
   <dipole>
    <v name="dipole">      0.00000000       0.00000000      -0.03046441 </v>
    <i name="Tr[quadrupol]">  -4474.59475591 </i>
    <i name="Echarged">      0.00000000 </i>
    <i name="Edipol_quadrupol">      0.00000000 </i>
    <i name="Eion">      0.00000000 </i>
   </dipole>
   <energy>
    <i name="e_fr_energy">   -187.74628607 </i>
    <i name="e_wo_entrp">   -187.66823284 </i>
    <i name="e_0_energy">   -187.72026832 </i>
   </energy>
  </scstep>
  <scstep>
   <time name="diag">    0.15    0.15</time>
   <time name="diis">    0.42    0.42</time>
   <time name="orth">    0.02    0.02</time>
   <time name="total">    0.68    0.68</time>
   <dipole>
    <v name="dipole">      0.00000000       0.00000000      -0.02929041 </v>
    <i name="Tr[quadrupol]">  -4474.69472623 </i>
    <i name="Echarged">      0.00000000 </i>
    <i name="Edipol_quadrupol">      0.00000000 </i>
    <i name="Eion">      0.00000000 </i>
   </dipole>
   <energy>
    <i name="e_fr_energy">   -187.74605328 </i>
    <i name="e_wo_entrp">   -187.66827405 </i>
    <i name="e_0_energy">   -187.72012687 </i>
   </energy>
  </scstep>
  <scstep>
   <time name="diag">    0.15    0.15</time>
   <time name="diis">    0.37    0.37</time>
   <time name="orth">    0.02    0.02</time>
   <time name="total">    0.63    0.63</time>
   <dipole>
    <v name="dipole">      0.00000000       0.00000000      -0.02670144 </v>
    <i name="Tr[quadrupol]">  -4474.85273021 </i>
    <i name="Echarged">      0.00000000 </i>
    <i name="Edipol_quadrupol">      0.00000000 </i>
    <i name="Eion">      0.00000000 </i>
   </dipole>
   <energy>
    <i name="e_fr_energy">   -187.74624964 </i>
    <i name="e_wo_entrp">   -187.66859240 </i>
    <i name="e_0_energy">   -187.72036389 </i>
   </energy>
  </scstep>
  <scstep>
   <time name="diag">    0.15    0.15</time>
   <time name="diis">    0.35    0.35</time>
   <time name="orth">    0.02    0.02</time>
   <time name="total">    0.57    0.57</time>
   <dipole>
    <v name="dipole">      0.00000000       0.00000000      -0.02921680 </v>
    <i name="Tr[quadrupol]">  -4475.05132097 </i>
    <i name="Echarged">      0.00000000 </i>
    <i name="Edipol_quadrupol">      0.00000000 </i>
    <i name="Eion">      0.00000000 </i>
   </dipole>
   <energy>
    <i name="alphaZ">    628.84512543 </i>
    <i name="ewald">  75968.54115270 </i>
    <i name="hartreedc">-106753.12292322 </i>
    <i name="XCdc">  -1052.64283250 </i>
    <i name="pawpsdc">  34403.76669406 </i>
    <i name="pawaedc"> -32234.48861439 </i>
    <i name="eentropy">     -0.07783715 </i>
    <i name="bandstr">   -601.12287457 </i>
    <i name="atom">  29452.55580095 </i>
    <i name="e_fr_energy">   -187.74630869 </i>
    <i name="e_wo_entrp">   -187.66847154 </i>
    <i name="e_0_energy">   -187.72036297 </i>
   </energy>
  </scstep>
  <structure>
   <crystal>
    <varray name="basis" >
     <v>       8.35800215       0.00000000       0.00000000 </v>
     <v>       0.00000000       8.35800215       0.00000000 </v>
     <v>       0.00000000       0.00000000      19.91000000 </v>
    </varray>
    <i name="volume">   1390.83694200 </i>
    <varray name="rec_basis" >
     <v>       0.11964582       0.00000000       0.00000000 </v>
     <v>       0.00000000       0.11964582       0.00000000 </v>
     <v>       0.00000000       0.00000000       0.05022602 </v>
    </varray>
   </crystal>
   <varray name="positions" >
    <v>       0.16666667       0.16666667       0.00000000 </v>
    <v>       0.50000000       0.16666667       0.00000000 </v>
    <v>       0.83333333       0.16666667       0.00000000 </v>
    <v>       0.16666667       0.50000000       0.00000000 </v>
    <v>       0.50000000       0.50000000       0.00000000 </v>
    <v>       0.83333333       0.50000000       0.00000000 </v>
    <v>       0.16666667       0.83333333       0.00000000 </v>
    <v>       0.50000000       0.83333333       0.00000000 </v>
    <v>       0.83333333       0.83333333       0.00000000 </v>
    <v>       0.00000000       0.00000000       0.09894525 </v>
    <v>       0.33333333       0.00000000       0.09894525 </v>
    <v>       0.66666667       0.00000000       0.09894525 </v>
    <v>       0.00000000       0.33333333       0.09894525 </v>
    <v>       0.33333333       0.33333333       0.09894525 </v>
    <v>       0.66666667       0.33333333       0.09894525 </v>
    <v>       0.00000000       0.66666667       0.09894525 </v>
    <v>       0.33333333       0.66666667       0.09894525 </v>
    <v>       0.66666667       0.66666667       0.09894525 </v>
    <v>       0.16688959       0.16779149       0.19802575 </v>
    <v>       0.49967507       0.16878359       0.19781416 </v>
    <v>       0.83433343       0.16800372       0.19794516 </v>
    <v>       0.16692246       0.49820285       0.19814131 </v>
    <v>       0.49933831       0.49836319       0.19751987 </v>
    <v>       0.83360944       0.49787523       0.19722598 </v>
    <v>       0.16667272       0.83337212       0.19614780 </v>
    <v>       0.50046039       0.83379139       0.19649430 </v>
    <v>       0.83280403       0.83369551       0.19635022 </v>
    <v>       0.00076326       0.99618655       0.29506403 </v>
    <v>       0.33296916       0.99682044       0.29474843 </v>
    <v>       0.66671796       0.99875970       0.29622810 </v>
    <v>       0.99144054       0.33461360       0.29994063 </v>
    <v>       0.34261135       0.33377793       0.30064731 </v>
    <v>       0.66706978       0.33419106       0.29820651 </v>
    <v>       0.99878779       0.66895424       0.29445349 </v>
    <v>       0.33373051       0.66901081       0.29476213 </v>
    <v>       0.66662490       0.66732829       0.29460898 </v>
    <v>       0.66579180       0.16479578       0.34629027 </v>
    <v>       0.16907375       0.50555788       0.39951484 </v>
    <v>       0.16611784       0.34374542       0.38807866 </v>
   </varray>
  </structure>
  <varray name="forces" >
   <v>      -0.00213942       0.02286242       0.10133027 </v>
   <v>      -0.00817629       0.03566668       0.10978769 </v>
   <v>       0.01095645       0.03273838       0.10534980 </v>
   <v>       0.00181692      -0.01604820       0.07730605 </v>
   <v>      -0.01042918      -0.02213640       0.11432611 </v>
   <v>       0.00719525      -0.02469154       0.11600768 </v>
   <v>       0.00001572      -0.00290289       0.06519180 </v>
   <v>      -0.02143511      -0.00039911       0.07038758 </v>
   <v>       0.02072133       0.00220292       0.06930763 </v>
   <v>      -0.00485358       0.03307127      -0.06243753 </v>
   <v>       0.01427998       0.03648120      -0.05472254 </v>
   <v>      -0.00106197       0.02964627      -0.17833683 </v>
   <v>       0.01996336      -0.00999600      -0.10574228 </v>
   <v>      -0.01043999      -0.00158241      -0.10768783 </v>
   <v>      -0.00028920      -0.02030451      -0.00495045 </v>
   <v>       0.00997623      -0.04451730      -0.13615926 </v>
   <v>      -0.00883920      -0.03990628      -0.13746475 </v>
   <v>      -0.00836023      -0.02443879      -0.11648136 </v>
   <v>      -0.00239737       0.00314686       0.00069841 </v>
   <v>      -0.01178842      -0.01376605       0.00075795 </v>
   <v>      -0.00374552       0.00981191      -0.01521557 </v>
   <v>      -0.00505078       0.00402279       0.00389466 </v>
   <v>       0.00554086      -0.00381467      -0.00005414 </v>
   <v>       0.00102032       0.01603440       0.01121125 </v>
   <v>      -0.00152493      -0.00093547       0.00544807 </v>
   <v>       0.00063213      -0.00453472       0.00853500 </v>
   <v>      -0.00019631       0.00161096       0.02365651 </v>
   <v>       0.00517570       0.01652073      -0.01796323 </v>
   <v>      -0.00887928      -0.00328320       0.00358552 </v>
   <v>       0.00238782       0.00492032      -0.00824018 </v>
   <v>       0.00509840      -0.01494680       0.03362283 </v>
   <v>       0.00257415       0.00178083      -0.02268786 </v>
   <v>      -0.00714049      -0.01206524      -0.00777327 </v>
   <v>       0.00981011      -0.00590679       0.01219004 </v>
   <v>       0.00510366      -0.00421009      -0.00090440 </v>
   <v>      -0.00319503       0.00430110       0.01619366 </v>
   <v>       0.00235875      -0.00375431       0.02510460 </v>
   <v>      -0.01874703       0.00184619       0.00900224 </v>
   <v>       0.01406218       0.01747555      -0.00607384 </v>
  </varray>
  <varray name="stress" >
   <v>     -23.32029210      -0.03920448      -0.01041668 </v>
   <v>      -0.03920447     -24.44283812       0.00417110 </v>
   <v>      -0.01041669       0.00417106      -3.63221015 </v>
  </varray>
  <energy>
   <i name="e_fr_energy">   -187.74630869 </i>
   <i name="e_wo_entrp">   -187.66847154 </i>
   <i name="e_0_energy">   -187.72036297 </i>
  </energy>
  <time name="totalsc">   22.61   22.73</time>
  <eigenvalues>
   <array>
    <dimension dim="1">band</dimension>
    <dimension dim="2">kpoint</dimension>
    <dimension dim="3">spin</dimension>
    <field>eigene</field>
    <field>occ</field>
    <set>
     <set comment="spin 1">
      <set comment="kpoint 1">
       <r>  -13.1453    1.0000 </r>
       <r>   -5.6558    1.0000 </r>
       <r>   -5.3312    1.0000 </r>
       <r>   -4.8797    1.0000 </r>
       <r>   -4.3366    1.0000 </r>
       <r>   -4.2926    1.0000 </r>
       <r>   -4.0584    1.0000 </r>
       <r>   -3.9996    1.0000 </r>
       <r>   -3.9588    1.0000 </r>
       <r>   -3.8431    1.0000 </r>
       <r>   -3.8289    1.0000 </r>
       <r>   -3.8171    1.0000 </r>
       <r>   -3.8011    1.0000 </r>
       <r>   -3.7732    1.0000 </r>
       <r>   -3.7486    1.0000 </r>
       <r>   -3.6811    1.0000 </r>
       <r>   -3.6562    1.0000 </r>
       <r>   -3.6349    1.0000 </r>
       <r>   -3.6268    1.0000 </r>
       <r>   -3.5892    1.0000 </r>
       <r>   -3.5293    1.0000 </r>
       <r>   -3.4915    1.0000 </r>
       <r>   -3.4263    1.0000 </r>
       <r>   -3.4141    1.0000 </r>
       <r>   -3.4004    1.0000 </r>
       <r>   -3.3721    1.0000 </r>
       <r>   -3.2722    1.0000 </r>
       <r>   -3.2604    1.0000 </r>
       <r>   -3.2453    1.0000 </r>
       <r>   -3.2320    1.0000 </r>
       <r>   -3.2224    1.0000 </r>
       <r>   -3.1736    1.0000 </r>
       <r>   -3.1599    1.0000 </r>
       <r>   -3.1208    1.0000 </r>
       <r>   -3.0715    1.0000 </r>
       <r>   -3.0582    1.0000 </r>
       <r>   -3.0393    1.0000 </r>
       <r>   -2.9832    1.0000 </r>
       <r>   -2.9498    1.0000 </r>
       <r>   -2.9323    1.0000 </r>
       <r>   -2.9235    1.0000 </r>
       <r>   -2.9088    1.0000 </r>
       <r>   -2.9033    1.0000 </r>
       <r>   -2.8888    1.0000 </r>
       <r>   -2.8212    1.0000 </r>
       <r>   -2.7742    1.0000 </r>
       <r>   -2.7344    1.0000 </r>
       <r>   -2.6609    1.0000 </r>
       <r>   -2.6559    1.0000 </r>
       <r>   -2.6191    1.0000 </r>
       <r>   -2.5910    1.0000 </r>
       <r>   -2.5524    1.0000 </r>
       <r>   -2.5297    1.0000 </r>
       <r>   -2.4833    1.0000 </r>
       <r>   -2.4667    1.0000 </r>
       <r>   -2.4456    1.0000 </r>
       <r>   -2.4261    1.0000 </r>
       <r>   -2.4090    1.0000 </r>
       <r>   -2.3991    1.0000 </r>
       <r>   -2.3673    1.0000 </r>
       <r>   -2.3207    1.0000 </r>
       <r>   -2.2789    1.0000 </r>
       <r>   -2.2421    1.0000 </r>
       <r>   -2.2016    1.0000 </r>
       <r>   -2.1818    1.0000 </r>
       <r>   -2.1287    1.0000 </r>
       <r>   -2.1117    1.0000 </r>
       <r>   -2.0878    1.0000 </r>
       <r>   -2.0659    1.0000 </r>
       <r>   -2.0383    1.0000 </r>
       <r>   -1.9965    1.0000 </r>
       <r>   -1.9674    1.0000 </r>
       <r>   -1.9482    1.0000 </r>
       <r>   -1.8994    1.0000 </r>
       <r>   -1.8884    1.0000 </r>
       <r>   -1.8251    1.0000 </r>
       <r>   -1.7693    1.0000 </r>
       <r>   -1.7536    1.0000 </r>
       <r>   -1.7428    1.0000 </r>
       <r>   -1.7240    1.0000 </r>
       <r>   -1.7163    1.0000 </r>
       <r>   -1.6942    1.0000 </r>
       <r>   -1.6719    1.0000 </r>
       <r>   -1.6602    1.0000 </r>
       <r>   -1.6482    1.0000 </r>
       <r>   -1.6421    1.0000 </r>
       <r>   -1.6110    1.0000 </r>
       <r>   -1.5941    1.0000 </r>
       <r>   -1.5835    1.0000 </r>
       <r>   -1.5625    1.0000 </r>
       <r>   -1.5344    1.0000 </r>
       <r>   -1.4875    1.0000 </r>
       <r>   -1.4644    1.0000 </r>
       <r>   -1.4578    1.0000 </r>
       <r>   -1.4368    1.0000 </r>
       <r>   -1.4045    1.0000 </r>
       <r>   -1.3896    1.0000 </r>
       <r>   -1.3752    1.0000 </r>
       <r>   -1.3571    1.0000 </r>
       <r>   -1.3214    1.0000 </r>
       <r>   -1.3017    1.0000 </r>
       <r>   -1.2750    1.0000 </r>
       <r>   -1.2549    1.0000 </r>
       <r>   -1.2166    1.0000 </r>
       <r>   -1.2049    1.0000 </r>
       <r>   -1.1168    1.0000 </r>
       <r>   -1.1033    1.0000 </r>
       <r>   -1.0593    1.0000 </r>
       <r>   -1.0542    1.0000 </r>
       <r>   -1.0335    1.0000 </r>
       <r>   -0.9821    1.0000 </r>
       <r>   -0.9434    1.0000 </r>
       <r>   -0.8917    1.0000 </r>
       <r>   -0.8787    1.0000 </r>
       <r>   -0.8549    1.0000 </r>
       <r>   -0.8444    1.0000 </r>
       <r>   -0.8355    1.0000 </r>
       <r>   -0.8222    1.0000 </r>
       <r>   -0.8148    1.0000 </r>
       <r>   -0.7931    1.0000 </r>
       <r>   -0.7876    1.0000 </r>
       <r>   -0.7722    1.0000 </r>
       <r>   -0.7613    1.0000 </r>
       <r>   -0.7329    1.0000 </r>
       <r>   -0.7073    1.0000 </r>
       <r>   -0.6856    1.0000 </r>
       <r>   -0.6560    1.0000 </r>
       <r>   -0.6405    1.0000 </r>
       <r>   -0.6180    1.0000 </r>
       <r>   -0.6047    1.0000 </r>
       <r>   -0.5830    1.0000 </r>
       <r>   -0.5349    1.0000 </r>
       <r>   -0.4853    1.0000 </r>
       <r>   -0.4687    1.0000 </r>
       <r>   -0.4522    1.0000 </r>
       <r>   -0.4236    1.0000 </r>
       <r>   -0.4206    1.0000 </r>
       <r>   -0.4037    1.0000 </r>
       <r>   -0.3811    1.0000 </r>
       <r>   -0.3302    1.0000 </r>
       <r>   -0.2999    1.0000 </r>
       <r>   -0.2584    1.0000 </r>
       <r>   -0.2377    1.0000 </r>
       <r>   -0.2159    1.0000 </r>
       <r>   -0.1932    1.0000 </r>
       <r>   -0.1774    1.0000 </r>
       <r>   -0.1641    1.0000 </r>
       <r>   -0.1411    1.0000 </r>
       <r>   -0.1325    1.0000 </r>
       <r>   -0.0747    1.0000 </r>
       <r>   -0.0535    1.0000 </r>
       <r>   -0.0065    1.0000 </r>
       <r>    0.0248    1.0000 </r>
       <r>    0.0434    1.0000 </r>
       <r>    0.0786    1.0000 </r>
       <r>    0.0937    1.0000 </r>
       <r>    0.1172    1.0000 </r>
       <r>    0.1414    1.0000 </r>
       <r>    0.1741    1.0000 </r>
       <r>    0.1855    1.0000 </r>
       <r>    0.1877    1.0000 </r>
       <r>    0.2174    1.0000 </r>
       <r>    0.2342    1.0000 </r>
       <r>    0.2423    1.0000 </r>
       <r>    0.2733    1.0000 </r>
       <r>    0.3301    1.0000 </r>
       <r>    0.3472    1.0000 </r>
       <r>    0.3598    1.0000 </r>
       <r>    0.3905    1.0001 </r>
       <r>    0.4120    1.0003 </r>
       <r>    0.4339    1.0008 </r>
       <r>    0.4395    1.0010 </r>
       <r>    0.4468    1.0014 </r>
       <r>    0.4619    1.0026 </r>
       <r>    0.4776    1.0047 </r>
       <r>    0.4798    1.0051 </r>
       <r>    0.5078    1.0126 </r>
       <r>    0.5514    1.0312 </r>
       <r>    0.5727    1.0354 </r>
       <r>    0.5983    1.0184 </r>
       <r>    0.6193    0.9716 </r>
       <r>    0.6626    0.7428 </r>
       <r>    0.6718    0.6735 </r>
       <r>    0.6908    0.5166 </r>
       <r>    0.6987    0.4505 </r>
       <r>    0.7156    0.3125 </r>
       <r>    0.7287    0.2170 </r>
       <r>    0.7579    0.0583 </r>
       <r>    0.8043   -0.0333 </r>
       <r>    0.8530   -0.0230 </r>
       <r>    0.9622   -0.0005 </r>
       <r>    1.0441   -0.0000 </r>
       <r>    1.3760   -0.0000 </r>
       <r>    1.5205   -0.0000 </r>
       <r>    1.5607   -0.0000 </r>
       <r>    1.6298   -0.0000 </r>
       <r>    1.7241   -0.0000 </r>
       <r>    1.8740   -0.0000 </r>
       <r>    2.0736   -0.0000 </r>
       <r>    2.1258   -0.0000 </r>
       <r>    2.2753   -0.0000 </r>
       <r>    2.5817   -0.0000 </r>
       <r>    3.0238    0.0000 </r>
       <r>    3.2690    0.0000 </r>
       <r>    3.3542    0.0000 </r>
       <r>    3.4268    0.0000 </r>
       <r>    3.5236    0.0000 </r>
       <r>    3.7763    0.0000 </r>
       <r>    3.9728    0.0000 </r>
       <r>    4.1338    0.0000 </r>
       <r>    4.3586    0.0000 </r>
       <r>    4.6959    0.0000 </r>
       <r>    4.7717    0.0000 </r>
       <r>    5.0380    0.0000 </r>
       <r>    5.2212    0.0000 </r>
       <r>    5.3755    0.0000 </r>
       <r>    5.4924    0.0000 </r>
       <r>    5.8014    0.0000 </r>
       <r>    5.9078    0.0000 </r>
       <r>    5.9666    0.0000 </r>
      </set>
      <set comment="kpoint 2">
       <r>  -13.1453    1.0000 </r>
       <r>   -5.6555    1.0000 </r>
       <r>   -5.3319    1.0000 </r>
       <r>   -4.8796    1.0000 </r>
       <r>   -4.3355    1.0000 </r>
       <r>   -4.2930    1.0000 </r>
       <r>   -4.0582    1.0000 </r>
       <r>   -3.9998    1.0000 </r>
       <r>   -3.9596    1.0000 </r>
       <r>   -3.8433    1.0000 </r>
       <r>   -3.8285    1.0000 </r>
       <r>   -3.8169    1.0000 </r>
       <r>   -3.8012    1.0000 </r>
       <r>   -3.7735    1.0000 </r>
       <r>   -3.7472    1.0000 </r>
       <r>   -3.6817    1.0000 </r>
       <r>   -3.6560    1.0000 </r>
       <r>   -3.6352    1.0000 </r>
       <r>   -3.6268    1.0000 </r>
       <r>   -3.5896    1.0000 </r>
       <r>   -3.5304    1.0000 </r>
       <r>   -3.4897    1.0000 </r>
       <r>   -3.4250    1.0000 </r>
       <r>   -3.4131    1.0000 </r>
       <r>   -3.4007    1.0000 </r>
       <r>   -3.3738    1.0000 </r>
       <r>   -3.2725    1.0000 </r>
       <r>   -3.2603    1.0000 </r>
       <r>   -3.2461    1.0000 </r>
       <r>   -3.2326    1.0000 </r>
       <r>   -3.2226    1.0000 </r>
       <r>   -3.1740    1.0000 </r>
       <r>   -3.1597    1.0000 </r>
       <r>   -3.1205    1.0000 </r>
       <r>   -3.0702    1.0000 </r>
       <r>   -3.0588    1.0000 </r>
       <r>   -3.0388    1.0000 </r>
       <r>   -2.9834    1.0000 </r>
       <r>   -2.9509    1.0000 </r>
       <r>   -2.9319    1.0000 </r>
       <r>   -2.9232    1.0000 </r>
       <r>   -2.9080    1.0000 </r>
       <r>   -2.9026    1.0000 </r>
       <r>   -2.8908    1.0000 </r>
       <r>   -2.8213    1.0000 </r>
       <r>   -2.7746    1.0000 </r>
       <r>   -2.7344    1.0000 </r>
       <r>   -2.6606    1.0000 </r>
       <r>   -2.6556    1.0000 </r>
       <r>   -2.6191    1.0000 </r>
       <r>   -2.5912    1.0000 </r>
       <r>   -2.5518    1.0000 </r>
       <r>   -2.5305    1.0000 </r>
       <r>   -2.4818    1.0000 </r>
       <r>   -2.4693    1.0000 </r>
       <r>   -2.4444    1.0000 </r>
       <r>   -2.4260    1.0000 </r>
       <r>   -2.4083    1.0000 </r>
       <r>   -2.3943    1.0000 </r>
       <r>   -2.3693    1.0000 </r>
       <r>   -2.3221    1.0000 </r>
       <r>   -2.2789    1.0000 </r>
       <r>   -2.2427    1.0000 </r>
       <r>   -2.2012    1.0000 </r>
       <r>   -2.1815    1.0000 </r>
       <r>   -2.1298    1.0000 </r>
       <r>   -2.1109    1.0000 </r>
       <r>   -2.0882    1.0000 </r>
       <r>   -2.0664    1.0000 </r>
       <r>   -2.0393    1.0000 </r>
       <r>   -1.9959    1.0000 </r>
       <r>   -1.9683    1.0000 </r>
       <r>   -1.9484    1.0000 </r>
       <r>   -1.8995    1.0000 </r>
       <r>   -1.8878    1.0000 </r>
       <r>   -1.8249    1.0000 </r>
       <r>   -1.7696    1.0000 </r>
       <r>   -1.7531    1.0000 </r>
       <r>   -1.7418    1.0000 </r>
       <r>   -1.7265    1.0000 </r>
       <r>   -1.7157    1.0000 </r>
       <r>   -1.6930    1.0000 </r>
       <r>   -1.6730    1.0000 </r>
       <r>   -1.6625    1.0000 </r>
       <r>   -1.6490    1.0000 </r>
       <r>   -1.6420    1.0000 </r>
       <r>   -1.6100    1.0000 </r>
       <r>   -1.5935    1.0000 </r>
       <r>   -1.5836    1.0000 </r>
       <r>   -1.5621    1.0000 </r>
       <r>   -1.5334    1.0000 </r>
       <r>   -1.4877    1.0000 </r>
       <r>   -1.4639    1.0000 </r>
       <r>   -1.4581    1.0000 </r>
       <r>   -1.4369    1.0000 </r>
       <r>   -1.4049    1.0000 </r>
       <r>   -1.3895    1.0000 </r>
       <r>   -1.3735    1.0000 </r>
       <r>   -1.3557    1.0000 </r>
       <r>   -1.3232    1.0000 </r>
       <r>   -1.3024    1.0000 </r>
       <r>   -1.2761    1.0000 </r>
       <r>   -1.2554    1.0000 </r>
       <r>   -1.2168    1.0000 </r>
       <r>   -1.2009    1.0000 </r>
       <r>   -1.1163    1.0000 </r>
       <r>   -1.1033    1.0000 </r>
       <r>   -1.0597    1.0000 </r>
       <r>   -1.0540    1.0000 </r>
       <r>   -1.0350    1.0000 </r>
       <r>   -0.9829    1.0000 </r>
       <r>   -0.9428    1.0000 </r>
       <r>   -0.8936    1.0000 </r>
       <r>   -0.8776    1.0000 </r>
       <r>   -0.8550    1.0000 </r>
       <r>   -0.8432    1.0000 </r>
       <r>   -0.8370    1.0000 </r>
       <r>   -0.8230    1.0000 </r>
       <r>   -0.8140    1.0000 </r>
       <r>   -0.7930    1.0000 </r>
       <r>   -0.7876    1.0000 </r>
       <r>   -0.7724    1.0000 </r>
       <r>   -0.7610    1.0000 </r>
       <r>   -0.7326    1.0000 </r>
       <r>   -0.7073    1.0000 </r>
       <r>   -0.6853    1.0000 </r>
       <r>   -0.6565    1.0000 </r>
       <r>   -0.6391    1.0000 </r>
       <r>   -0.6177    1.0000 </r>
       <r>   -0.6050    1.0000 </r>
       <r>   -0.5831    1.0000 </r>
       <r>   -0.5342    1.0000 </r>
       <r>   -0.4854    1.0000 </r>
       <r>   -0.4689    1.0000 </r>
       <r>   -0.4542    1.0000 </r>
       <r>   -0.4247    1.0000 </r>
       <r>   -0.4196    1.0000 </r>
       <r>   -0.4038    1.0000 </r>
       <r>   -0.3806    1.0000 </r>
       <r>   -0.3314    1.0000 </r>
       <r>   -0.2988    1.0000 </r>
       <r>   -0.2601    1.0000 </r>
       <r>   -0.2377    1.0000 </r>
       <r>   -0.2142    1.0000 </r>
       <r>   -0.1920    1.0000 </r>
       <r>   -0.1768    1.0000 </r>
       <r>   -0.1635    1.0000 </r>
       <r>   -0.1405    1.0000 </r>
       <r>   -0.1319    1.0000 </r>
       <r>   -0.0745    1.0000 </r>
       <r>   -0.0537    1.0000 </r>
       <r>   -0.0057    1.0000 </r>
       <r>    0.0241    1.0000 </r>
       <r>    0.0440    1.0000 </r>
       <r>    0.0781    1.0000 </r>
       <r>    0.0943    1.0000 </r>
       <r>    0.1164    1.0000 </r>
       <r>    0.1407    1.0000 </r>
       <r>    0.1731    1.0000 </r>
       <r>    0.1858    1.0000 </r>
       <r>    0.1886    1.0000 </r>
       <r>    0.2175    1.0000 </r>
       <r>    0.2332    1.0000 </r>
       <r>    0.2414    1.0000 </r>
       <r>    0.2737    1.0000 </r>
       <r>    0.3296    1.0000 </r>
       <r>    0.3470    1.0000 </r>
       <r>    0.3598    1.0000 </r>
       <r>    0.3914    1.0001 </r>
       <r>    0.4118    1.0003 </r>
       <r>    0.4344    1.0008 </r>
       <r>    0.4390    1.0010 </r>
       <r>    0.4469    1.0014 </r>
       <r>    0.4615    1.0026 </r>
       <r>    0.4774    1.0047 </r>
       <r>    0.4807    1.0053 </r>
       <r>    0.5074    1.0124 </r>
       <r>    0.5503    1.0308 </r>
       <r>    0.5731    1.0353 </r>
       <r>    0.5981    1.0187 </r>
       <r>    0.6194    0.9711 </r>
       <r>    0.6618    0.7487 </r>
       <r>    0.6722    0.6700 </r>
       <r>    0.6912    0.5132 </r>
       <r>    0.6986    0.4510 </r>
       <r>    0.7157    0.3115 </r>
       <r>    0.7278    0.2228 </r>
       <r>    0.7584    0.0563 </r>
       <r>    0.8052   -0.0337 </r>
       <r>    0.8522   -0.0233 </r>
       <r>    0.9622   -0.0005 </r>
       <r>    1.0435   -0.0000 </r>
       <r>    1.3772   -0.0000 </r>
       <r>    1.5204   -0.0000 </r>
       <r>    1.5613   -0.0000 </r>
       <r>    1.6294   -0.0000 </r>
       <r>    1.7232   -0.0000 </r>
       <r>    1.8735   -0.0000 </r>
       <r>    2.0731   -0.0000 </r>
       <r>    2.1257   -0.0000 </r>
       <r>    2.2769   -0.0000 </r>
       <r>    2.5813   -0.0000 </r>
       <r>    3.0248    0.0000 </r>
       <r>    3.2665    0.0000 </r>
       <r>    3.3566    0.0000 </r>
       <r>    3.4272    0.0000 </r>
       <r>    3.5233    0.0000 </r>
       <r>    3.7757    0.0000 </r>
       <r>    3.9736    0.0000 </r>
       <r>    4.1331    0.0000 </r>
       <r>    4.3615    0.0000 </r>
       <r>    4.6962    0.0000 </r>
       <r>    4.7677    0.0000 </r>
       <r>    5.0391    0.0000 </r>
       <r>    5.2307    0.0000 </r>
       <r>    5.3699    0.0000 </r>
       <r>    5.4831    0.0000 </r>
       <r>    5.7498    0.0000 </r>
       <r>    5.9074    0.0000 </r>
       <r>    5.9620    0.0000 </r>
      </set>
     </set>
    </set>
   </array>
  </eigenvalues>
  <separator name="orbital magnetization" >
   <v name="MAGDIPOLOUT">      0.00000000      0.00000000      0.00000000</v>
  </separator>
  <dos>
   <i name="efermi">      0.69279701 </i>
   <total>
    <array>
     <dimension dim="1">gridpoints</dimension>
     <dimension dim="2">spin</dimension>
     <field>energy</field>
     <field>total</field>
     <field>integrated</field>
     <set>
      <set comment="spin 1">
       <r>   -14.1453     0.0000     0.0000 </r>
       <r>   -14.0750     0.0000     0.0000 </r>
       <r>   -14.0046    -0.0000    -0.0000 </r>
       <r>   -13.9342    -0.0000    -0.0000 </r>
       <r>   -13.8638    -0.0000    -0.0000 </r>
       <r>   -13.7935    -0.0000    -0.0000 </r>
       <r>   -13.7231    -0.0000    -0.0000 </r>
       <r>   -13.6527    -0.0000    -0.0000 </r>
       <r>   -13.5823    -0.0000    -0.0000 </r>
       <r>   -13.5120    -0.0000    -0.0000 </r>
       <r>   -13.4416    -0.0032    -0.0002 </r>
       <r>   -13.3712    -0.0869    -0.0063 </r>
       <r>   -13.3009    -0.6242    -0.0503 </r>
       <r>   -13.2305     0.6554    -0.0041 </r>
       <r>   -13.1601    10.7576     0.7529 </r>
       <r>   -13.0897    14.8586     1.7985 </r>
       <r>   -13.0194     3.8653     2.0706 </r>
       <r>   -12.9490    -0.7474     2.0180 </r>
       <r>   -12.8786    -0.2401     2.0011 </r>
       <r>   -12.8082    -0.0148     2.0000 </r>
       <r>   -12.7379    -0.0003     2.0000 </r>
       <r>   -12.6675    -0.0000     2.0000 </r>
       <r>   -12.5971    -0.0000     2.0000 </r>
       <r>   -12.5268    -0.0000     2.0000 </r>
       <r>   -12.4564     0.0000     2.0000 </r>
       <r>   -12.3860     0.0000     2.0000 </r>
       <r>   -12.3156     0.0000     2.0000 </r>
       <r>   -12.2453     0.0000     2.0000 </r>
       <r>   -12.1749     0.0000     2.0000 </r>
       <r>   -12.1045     0.0000     2.0000 </r>
       <r>   -12.0341     0.0000     2.0000 </r>
       <r>   -11.9638     0.0000     2.0000 </r>
       <r>   -11.8934     0.0000     2.0000 </r>
       <r>   -11.8230     0.0000     2.0000 </r>
       <r>   -11.7526     0.0000     2.0000 </r>
       <r>   -11.6823     0.0000     2.0000 </r>
       <r>   -11.6119     0.0000     2.0000 </r>
       <r>   -11.5415     0.0000     2.0000 </r>
       <r>   -11.4712     0.0000     2.0000 </r>
       <r>   -11.4008     0.0000     2.0000 </r>
       <r>   -11.3304     0.0000     2.0000 </r>
       <r>   -11.2600     0.0000     2.0000 </r>
       <r>   -11.1897     0.0000     2.0000 </r>
       <r>   -11.1193     0.0000     2.0000 </r>
       <r>   -11.0489     0.0000     2.0000 </r>
       <r>   -10.9785     0.0000     2.0000 </r>
       <r>   -10.9082     0.0000     2.0000 </r>
       <r>   -10.8378     0.0000     2.0000 </r>
       <r>   -10.7674     0.0000     2.0000 </r>
       <r>   -10.6971     0.0000     2.0000 </r>
       <r>   -10.6267     0.0000     2.0000 </r>
       <r>   -10.5563     0.0000     2.0000 </r>
       <r>   -10.4859     0.0000     2.0000 </r>
       <r>   -10.4156     0.0000     2.0000 </r>
       <r>   -10.3452     0.0000     2.0000 </r>
       <r>   -10.2748     0.0000     2.0000 </r>
       <r>   -10.2044     0.0000     2.0000 </r>
       <r>   -10.1341     0.0000     2.0000 </r>
       <r>   -10.0637     0.0000     2.0000 </r>
       <r>    -9.9933     0.0000     2.0000 </r>
       <r>    -9.9229     0.0000     2.0000 </r>
       <r>    -9.8526     0.0000     2.0000 </r>
       <r>    -9.7822     0.0000     2.0000 </r>
       <r>    -9.7118     0.0000     2.0000 </r>
       <r>    -9.6415     0.0000     2.0000 </r>
       <r>    -9.5711     0.0000     2.0000 </r>
       <r>    -9.5007     0.0000     2.0000 </r>
       <r>    -9.4303     0.0000     2.0000 </r>
       <r>    -9.3600     0.0000     2.0000 </r>
       <r>    -9.2896     0.0000     2.0000 </r>
       <r>    -9.2192     0.0000     2.0000 </r>
       <r>    -9.1488     0.0000     2.0000 </r>
       <r>    -9.0785     0.0000     2.0000 </r>
       <r>    -9.0081     0.0000     2.0000 </r>
       <r>    -8.9377     0.0000     2.0000 </r>
       <r>    -8.8674     0.0000     2.0000 </r>
       <r>    -8.7970     0.0000     2.0000 </r>
       <r>    -8.7266     0.0000     2.0000 </r>
       <r>    -8.6562     0.0000     2.0000 </r>
       <r>    -8.5859     0.0000     2.0000 </r>
       <r>    -8.5155     0.0000     2.0000 </r>
       <r>    -8.4451     0.0000     2.0000 </r>
       <r>    -8.3747     0.0000     2.0000 </r>
       <r>    -8.3044     0.0000     2.0000 </r>
       <r>    -8.2340     0.0000     2.0000 </r>
       <r>    -8.1636     0.0000     2.0000 </r>
       <r>    -8.0932     0.0000     2.0000 </r>
       <r>    -8.0229     0.0000     2.0000 </r>
       <r>    -7.9525     0.0000     2.0000 </r>
       <r>    -7.8821     0.0000     2.0000 </r>
       <r>    -7.8118     0.0000     2.0000 </r>
       <r>    -7.7414     0.0000     2.0000 </r>
       <r>    -7.6710     0.0000     2.0000 </r>
       <r>    -7.6006     0.0000     2.0000 </r>
       <r>    -7.5303     0.0000     2.0000 </r>
       <r>    -7.4599     0.0000     2.0000 </r>
       <r>    -7.3895     0.0000     2.0000 </r>
       <r>    -7.3191     0.0000     2.0000 </r>
       <r>    -7.2488     0.0000     2.0000 </r>
       <r>    -7.1784     0.0000     2.0000 </r>
       <r>    -7.1080     0.0000     2.0000 </r>
       <r>    -7.0377     0.0000     2.0000 </r>
       <r>    -6.9673     0.0000     2.0000 </r>
       <r>    -6.8969     0.0000     2.0000 </r>
       <r>    -6.8265     0.0000     2.0000 </r>
       <r>    -6.7562     0.0000     2.0000 </r>
       <r>    -6.6858     0.0000     2.0000 </r>
       <r>    -6.6154     0.0000     2.0000 </r>
       <r>    -6.5450     0.0000     2.0000 </r>
       <r>    -6.4747    -0.0000     2.0000 </r>
       <r>    -6.4043    -0.0000     2.0000 </r>
       <r>    -6.3339    -0.0000     2.0000 </r>
       <r>    -6.2635    -0.0000     2.0000 </r>
       <r>    -6.1932    -0.0000     2.0000 </r>
       <r>    -6.1228    -0.0000     2.0000 </r>
       <r>    -6.0524    -0.0000     2.0000 </r>
       <r>    -5.9821    -0.0006     2.0000 </r>
       <r>    -5.9117    -0.0245     1.9982 </r>
       <r>    -5.8413    -0.3262     1.9753 </r>
       <r>    -5.7709    -0.6313     1.9309 </r>
       <r>    -5.7006     5.5083     2.3185 </r>
       <r>    -5.6302    15.5952     3.4160 </r>
       <r>    -5.5598     8.7930     4.0348 </r>
       <r>    -5.4894    -0.6028     3.9923 </r>
       <r>    -5.4191    -0.0264     3.9905 </r>
       <r>    -5.3487    10.2939     4.7149 </r>
       <r>    -5.2783    15.0610     5.7748 </r>
       <r>    -5.2079     4.2069     6.0708 </r>
       <r>    -5.1376    -0.7550     6.0177 </r>
       <r>    -5.0672    -0.5671     5.9778 </r>
       <r>    -4.9968    -0.6788     5.9300 </r>
       <r>    -4.9265     5.1961     6.2957 </r>
       <r>    -4.8561    15.5018     7.3866 </r>
       <r>    -4.7857     9.2170     8.0352 </r>
       <r>    -4.7153     0.0987     8.0422 </r>
       <r>    -4.6450    -0.5376     8.0043 </r>
       <r>    -4.5746    -0.1210     7.9958 </r>
       <r>    -4.5042    -0.6455     7.9504 </r>
       <r>    -4.4338    -0.8305     7.8920 </r>
       <r>    -4.3635    10.4958     8.6306 </r>
       <r>    -4.2931    28.6734    10.6484 </r>
       <r>    -4.2227    18.3224    11.9378 </r>
       <r>    -4.1524     0.6108    11.9808 </r>
       <r>    -4.0820     8.1597    12.5550 </r>
       <r>    -4.0116    29.5898    14.6373 </r>
       <r>    -3.9412    31.9568    16.8863 </r>
       <r>    -3.8709    32.3067    19.1598 </r>
       <r>    -3.8005    69.3343    24.0390 </r>
       <r>    -3.7301    72.8839    29.1681 </r>
       <r>    -3.6597    62.7961    33.5873 </r>
       <r>    -3.5894    67.1059    38.3097 </r>
       <r>    -3.5190    47.7125    41.6674 </r>
       <r>    -3.4486    48.3970    45.0732 </r>
       <r>    -3.3782    60.7968    49.3517 </r>
       <r>    -3.3079    49.4187    52.8295 </r>
       <r>    -3.2375    71.9726    57.8944 </r>
       <r>    -3.1671    84.4110    63.8346 </r>
       <r>    -3.0968    64.8008    68.3949 </r>
       <r>    -3.0264    60.8724    72.6787 </r>
       <r>    -2.9560    77.6048    78.1400 </r>
       <r>    -2.8856    98.2671    85.0553 </r>
       <r>    -2.8153    64.6881    89.6076 </r>
       <r>    -2.7449    38.3627    92.3073 </r>
       <r>    -2.6745    44.8189    95.4614 </r>
       <r>    -2.6041    60.9913    99.7535 </r>
       <r>    -2.5338    64.7420   104.3096 </r>
       <r>    -2.4634    77.3753   109.7547 </r>
       <r>    -2.3930    91.9993   116.2290 </r>
       <r>    -2.3227    68.5804   121.0552 </r>
       <r>    -2.2523    49.5608   124.5430 </r>
       <r>    -2.1819    55.0592   128.4177 </r>
       <r>    -2.1115    67.3043   133.1541 </r>
       <r>    -2.0412    73.9431   138.3577 </r>
       <r>    -1.9708    67.6986   143.1218 </r>
       <r>    -1.9004    60.3305   147.3675 </r>
       <r>    -1.8300    47.0443   150.6781 </r>
       <r>    -1.7597    66.7377   155.3747 </r>
       <r>    -1.6893   115.5019   163.5029 </r>
       <r>    -1.6189   126.6171   172.4133 </r>
       <r>    -1.5485    98.7628   179.3636 </r>
       <r>    -1.4782    78.6398   184.8977 </r>
       <r>    -1.4078    91.4943   191.3365 </r>
       <r>    -1.3374    95.0094   198.0226 </r>
       <r>    -1.2671    82.8236   203.8511 </r>
       <r>    -1.1967    63.0041   208.2849 </r>
       <r>    -1.1263    48.1309   211.6720 </r>
       <r>    -1.0559    64.7716   216.2302 </r>
       <r>    -0.9856    62.2827   220.6132 </r>
       <r>    -0.9152    55.2911   224.5042 </r>
       <r>    -0.8448   104.0051   231.8234 </r>
       <r>    -0.7744   140.8354   241.7344 </r>
       <r>    -0.7041   111.1279   249.5548 </r>
       <r>    -0.6337    89.6533   255.8640 </r>
       <r>    -0.5633    76.1283   261.2214 </r>
       <r>    -0.4930    64.9023   265.7888 </r>
       <r>    -0.4226    89.1943   272.0657 </r>
       <r>    -0.3522    82.5019   277.8716 </r>
       <r>    -0.2818    60.3020   282.1152 </r>
       <r>    -0.2115    80.3473   287.7695 </r>
       <r>    -0.1411    97.3837   294.6227 </r>
       <r>    -0.0707    72.4862   299.7238 </r>
       <r>    -0.0003    57.1456   303.7453 </r>
       <r>     0.0700    70.8548   308.7316 </r>
       <r>     0.1404    89.6493   315.0405 </r>
       <r>     0.2108   104.9034   322.4228 </r>
       <r>     0.2812    88.8394   328.6747 </r>
       <r>     0.3515    72.9892   333.8112 </r>
       <r>     0.4219   106.5253   341.3077 </r>
       <r>     0.4923   125.4885   350.1387 </r>
       <r>     0.5626    89.8138   356.4592 </r>
       <r>     0.6330    78.1553   361.9592 </r>
       <r>     0.7034   101.9391   369.1330 </r>
       <r>     0.7738    89.7801   375.4511 </r>
       <r>     0.8441    46.3821   378.7152 </r>
       <r>     0.9145    21.8153   380.2504 </r>
       <r>     0.9849    19.8837   381.6497 </r>
       <r>     1.0553    22.6258   383.2419 </r>
       <r>     1.1256    11.2074   384.0306 </r>
       <r>     1.1960    -0.0151   384.0295 </r>
       <r>     1.2664    -1.2767   383.9397 </r>
       <r>     1.3367     5.8041   384.3482 </r>
       <r>     1.4071    14.4283   385.3635 </r>
       <r>     1.4775    13.8907   386.3410 </r>
       <r>     1.5479    26.9882   388.2403 </r>
       <r>     1.6182    33.6840   390.6107 </r>
       <r>     1.6886    24.8673   392.3607 </r>
       <r>     1.7590    17.3337   393.5806 </r>
       <r>     1.8294    11.6267   394.3988 </r>
       <r>     1.8997    14.4607   395.4164 </r>
       <r>     1.9701     7.4112   395.9380 </r>
       <r>     2.0405     8.0782   396.5064 </r>
       <r>     2.1109    25.5004   398.3010 </r>
       <r>     2.1812    21.6173   399.8223 </r>
       <r>     2.2516    12.4684   400.6997 </r>
       <r>     2.3220    14.3874   401.7122 </r>
       <r>     2.3923     4.7773   402.0484 </r>
       <r>     2.4627    -1.3470   401.9536 </r>
       <r>     2.5331     4.6281   402.2793 </r>
       <r>     2.6035    15.3870   403.3621 </r>
       <r>     2.6738     9.4975   404.0305 </r>
       <r>     2.7442     0.1791   404.0431 </r>
       <r>     2.8146    -0.7083   403.9932 </r>
       <r>     2.8850    -0.8112   403.9361 </r>
       <r>     2.9553     2.1486   404.0874 </r>
       <r>     3.0257    13.2548   405.0201 </r>
       <r>     3.0961    12.4249   405.8945 </r>
       <r>     3.1664     1.2896   405.9853 </r>
       <r>     3.2368     6.1971   406.4214 </r>
       <r>     3.3072    19.7888   407.8140 </r>
       <r>     3.3776    25.9087   409.6372 </r>
       <r>     3.4479    25.7645   411.4504 </r>
       <r>     3.5183    21.8021   412.9846 </r>
       <r>     3.5887    13.1512   413.9101 </r>
       <r>     3.6591     1.3002   414.0016 </r>
       <r>     3.7294     4.3672   414.3090 </r>
       <r>     3.7998    14.8937   415.3571 </r>
       <r>     3.8702     8.8333   415.9787 </r>
       <r>     3.9406     7.4110   416.5003 </r>
       <r>     4.0109    14.5474   417.5240 </r>
       <r>     4.0813    11.0182   418.2994 </r>
       <r>     4.1517    14.5140   419.3208 </r>
       <r>     4.2220     9.0164   419.9553 </r>
       <r>     4.2924     2.6912   420.1447 </r>
       <r>     4.3628    12.8905   421.0518 </r>
       <r>     4.4332    12.6098   421.9392 </r>
       <r>     4.5035     1.4256   422.0395 </r>
       <r>     4.5739    -1.6878   421.9208 </r>
       <r>     4.6443     3.5493   422.1705 </r>
       <r>     4.7147    19.1201   423.5161 </r>
       <r>     4.7850    24.9653   425.2730 </r>
       <r>     4.8554    10.7050   426.0263 </r>
       <r>     4.9258    -0.5523   425.9874 </r>
       <r>     4.9961     5.1511   426.3499 </r>
       <r>     5.0665    15.0216   427.4071 </r>
       <r>     5.1369     8.7782   428.0248 </r>
       <r>     5.2073     9.4248   428.6881 </r>
       <r>     5.2776    14.5373   429.7111 </r>
       <r>     5.3480    12.6856   430.6038 </r>
       <r>     5.4184    16.9675   431.7979 </r>
       <r>     5.4888    18.3176   433.0869 </r>
       <r>     5.5591    12.1094   433.9391 </r>
       <r>     5.6295     1.0069   434.0100 </r>
       <r>     5.6999     1.2921   434.1009 </r>
       <r>     5.7703    10.4310   434.8350 </r>
       <r>     5.8406    14.4164   435.8495 </r>
       <r>     5.9110    21.1391   437.3371 </r>
       <r>     5.9814    27.1194   439.2456 </r>
       <r>     6.0517    11.7802   440.0746 </r>
       <r>     6.1221    -0.2369   440.0579 </r>
       <r>     6.1925    -0.7343   440.0062 </r>
       <r>     6.2629    -0.0858   440.0002 </r>
       <r>     6.3332    -0.0029   440.0000 </r>
       <r>     6.4036    -0.0000   440.0000 </r>
       <r>     6.4740    -0.0000   440.0000 </r>
       <r>     6.5444    -0.0000   440.0000 </r>
       <r>     6.6147    -0.0000   440.0000 </r>
       <r>     6.6851     0.0000   440.0000 </r>
       <r>     6.7555     0.0000   440.0000 </r>
       <r>     6.8258     0.0000   440.0000 </r>
       <r>     6.8962     0.0000   440.0000 </r>
       <r>     6.9666     0.0000   440.0000 </r>
      </set>
     </set>
    </array>
   </total>
  </dos>
 </calculation>
 <structure name="finalpos" >
  <crystal>
   <varray name="basis" >
    <v>       8.35800215       0.00000000       0.00000000 </v>
    <v>       0.00000000       8.35800215       0.00000000 </v>
    <v>       0.00000000       0.00000000      19.91000000 </v>
   </varray>
   <i name="volume">   1390.83694200 </i>
   <varray name="rec_basis" >
    <v>       0.11964582       0.00000000       0.00000000 </v>
    <v>       0.00000000       0.11964582       0.00000000 </v>
    <v>       0.00000000       0.00000000       0.05022602 </v>
   </varray>
  </crystal>
  <varray name="positions" >
   <v>       0.16666667       0.16666667       0.00000000 </v>
   <v>       0.50000000       0.16666667       0.00000000 </v>
   <v>       0.83333333       0.16666667       0.00000000 </v>
   <v>       0.16666667       0.50000000       0.00000000 </v>
   <v>       0.50000000       0.50000000       0.00000000 </v>
   <v>       0.83333333       0.50000000       0.00000000 </v>
   <v>       0.16666667       0.83333333       0.00000000 </v>
   <v>       0.50000000       0.83333333       0.00000000 </v>
   <v>       0.83333333       0.83333333       0.00000000 </v>
   <v>       0.00000000       0.00000000       0.09894525 </v>
   <v>       0.33333333       0.00000000       0.09894525 </v>
   <v>       0.66666667       0.00000000       0.09894525 </v>
   <v>       0.00000000       0.33333333       0.09894525 </v>
   <v>       0.33333333       0.33333333       0.09894525 </v>
   <v>       0.66666667       0.33333333       0.09894525 </v>
   <v>       0.00000000       0.66666667       0.09894525 </v>
   <v>       0.33333333       0.66666667       0.09894525 </v>
   <v>       0.66666667       0.66666667       0.09894525 </v>
   <v>       0.16688959       0.16779149       0.19802575 </v>
   <v>       0.49967507       0.16878359       0.19781416 </v>
   <v>       0.83433343       0.16800372       0.19794516 </v>
   <v>       0.16692246       0.49820285       0.19814131 </v>
   <v>       0.49933831       0.49836319       0.19751987 </v>
   <v>       0.83360944       0.49787523       0.19722598 </v>
   <v>       0.16667272       0.83337212       0.19614780 </v>
   <v>       0.50046039       0.83379139       0.19649430 </v>
   <v>       0.83280403       0.83369551       0.19635022 </v>
   <v>       0.00076326       0.99618655       0.29506403 </v>
   <v>       0.33296916       0.99682044       0.29474843 </v>
   <v>       0.66671796       0.99875970       0.29622810 </v>
   <v>       0.99144054       0.33461360       0.29994063 </v>
   <v>       0.34261135       0.33377793       0.30064731 </v>
   <v>       0.66706978       0.33419106       0.29820651 </v>
   <v>       0.99878779       0.66895424       0.29445349 </v>
   <v>       0.33373051       0.66901081       0.29476213 </v>
   <v>       0.66662490       0.66732829       0.29460898 </v>
   <v>       0.66579180       0.16479578       0.34629027 </v>
   <v>       0.16907375       0.50555788       0.39951484 </v>
   <v>       0.16611784       0.34374542       0.38807866 </v>
  </varray>
  <varray name="selective"  type="logical" >
   <v type="logical" >  F  F  F </v>
   <v type="logical" >  F  F  F </v>
   <v type="logical" >  F  F  F </v>
   <v type="logical" >  F  F  F </v>
   <v type="logical" >  F  F  F </v>
   <v type="logical" >  F  F  F </v>
   <v type="logical" >  F  F  F </v>
   <v type="logical" >  F  F  F </v>
   <v type="logical" >  F  F  F </v>
   <v type="logical" >  F  F  F </v>
   <v type="logical" >  F  F  F </v>
   <v type="logical" >  F  F  F </v>
   <v type="logical" >  F  F  F </v>
   <v type="logical" >  F  F  F </v>
   <v type="logical" >  F  F  F </v>
   <v type="logical" >  F  F  F </v>
   <v type="logical" >  F  F  F </v>
   <v type="logical" >  F  F  F </v>
   <v type="logical" >  T  T  T </v>
   <v type="logical" >  T  T  T </v>
   <v type="logical" >  T  T  T </v>
   <v type="logical" >  T  T  T </v>
   <v type="logical" >  T  T  T </v>
   <v type="logical" >  T  T  T </v>
   <v type="logical" >  T  T  T </v>
   <v type="logical" >  T  T  T </v>
   <v type="logical" >  T  T  T </v>
   <v type="logical" >  T  T  T </v>
   <v type="logical" >  T  T  T </v>
   <v type="logical" >  T  T  T </v>
   <v type="logical" >  T  T  T </v>
   <v type="logical" >  T  T  T </v>
   <v type="logical" >  T  T  T </v>
   <v type="logical" >  T  T  T </v>
   <v type="logical" >  T  T  T </v>
   <v type="logical" >  T  T  T </v>
   <v type="logical" >  T  T  T </v>
   <v type="logical" >  T  T  T </v>
   <v type="logical" >  T  T  T </v>
  </varray>
  <nose>
   <v>      -3.00000000       0.00000000       0.00010000       0.00010000 </v>
  </nose>
 </structure>
</modeling>
