unknown system                          
           1
     8.358002    0.000000    0.000000
     0.000000    8.358002    0.000000
     0.000000    0.000000   19.910000
   Pd   H    S 
    36     2     1
Direct configuration=     1
   0.16666667  0.16666667  0.00000000
   0.50000000  0.16666667  0.00000000
   0.83333333  0.16666667  0.00000000
   0.16666667  0.50000000  0.00000000
   0.50000000  0.50000000  0.00000000
   0.83333333  0.50000000  0.00000000
   0.16666667  0.83333333  0.00000000
   0.50000000  0.83333333  0.00000000
   0.83333333  0.83333333  0.00000000
   0.00000000  0.00000000  0.09894525
   0.33333333  0.00000000  0.09894525
   0.66666667  0.00000000  0.09894525
   0.00000000  0.33333333  0.09894525
   0.33333333  0.33333333  0.09894525
   0.66666667  0.33333333  0.09894525
   0.00000000  0.66666667  0.09894525
   0.33333333  0.66666667  0.09894525
   0.66666667  0.66666667  0.09894525
   0.16688959  0.16779149  0.19802575
   0.49967507  0.16878359  0.19781416
   0.83433343  0.16800372  0.19794516
   0.16692246  0.49820285  0.19814131
   0.49933831  0.49836319  0.19751987
   0.83360944  0.49787523  0.19722598
   0.16667272  0.83337212  0.19614780
   0.50046039  0.83379139  0.19649430
   0.83280403  0.83369551  0.19635022
   0.00076326  0.99618655  0.29506403
   0.33296916  0.99682044  0.29474843
   0.66671796  0.99875970  0.29622810
   0.99144054  0.33461360  0.29994063
   0.34261135  0.33377793  0.30064731
   0.66706978  0.33419106  0.29820651
   0.99878779  0.66895424  0.29445349
   0.33373051  0.66901081  0.29476213
   0.66662490  0.66732829  0.29460898
   0.66579180  0.16479578  0.34629027
   0.16907375  0.50555788  0.39951484
   0.16611784  0.34374542  0.38807866
