  37  37   0   0
  0.4206308E+02  0.8803480E-09  0.8803480E-09  0.2318801E-08  0.5000000E-15
   1.0000000000000000E-004
  CAR 
 unknown system                          
      8.06710705    -18.29807074  301      0.43292057      1.00000000
    -18.298  0.0000E+00  0.0000E+00
    -18.210  0.0000E+00  0.0000E+00
    -18.122  0.0000E+00  0.0000E+00
    -18.034  0.0000E+00  0.0000E+00
    -17.947 -0.3759E-29 -0.3303E-30
    -17.859 -0.4550E-23 -0.3999E-24
    -17.771 -0.1159E-17 -0.1019E-18
    -17.683 -0.6069E-13 -0.5334E-14
    -17.595 -0.6628E-09 -0.5825E-10
    -17.507 -0.1496E-05 -0.1316E-06
    -17.419 -0.6738E-03 -0.5935E-04
    -17.331 -0.5633E-01 -0.5010E-02
    -17.243 -0.6310E+00 -0.6046E-01
    -17.156  0.2924E+01  0.1966E+00
    -17.068  0.1493E+02  0.1509E+01
    -16.980  0.6390E+01  0.2071E+01
    -16.892 -0.6626E+00  0.2012E+01
    -16.804 -0.1387E+00  0.2000E+01
    -16.716 -0.2727E-02  0.2000E+01
    -16.628 -0.9545E-05  0.2000E+01
    -16.540 -0.6579E-08  0.2000E+01
    -16.453 -0.9239E-12  0.2000E+01
    -16.365  0.0000E+00  0.2000E+01
    -16.277  0.0000E+00  0.2000E+01
    -16.189  0.0000E+00  0.2000E+01
    -16.101  0.0000E+00  0.2000E+01
    -16.013  0.0000E+00  0.2000E+01
    -15.925  0.0000E+00  0.2000E+01
    -15.837  0.0000E+00  0.2000E+01
    -15.749  0.0000E+00  0.2000E+01
    -15.662  0.0000E+00  0.2000E+01
    -15.574  0.0000E+00  0.2000E+01
    -15.486  0.0000E+00  0.2000E+01
    -15.398  0.0000E+00  0.2000E+01
    -15.310  0.0000E+00  0.2000E+01
    -15.222  0.0000E+00  0.2000E+01
    -15.134  0.0000E+00  0.2000E+01
    -15.046  0.0000E+00  0.2000E+01
    -14.958  0.0000E+00  0.2000E+01
    -14.871  0.0000E+00  0.2000E+01
    -14.783  0.0000E+00  0.2000E+01
    -14.695  0.0000E+00  0.2000E+01
    -14.607  0.0000E+00  0.2000E+01
    -14.519  0.0000E+00  0.2000E+01
    -14.431  0.0000E+00  0.2000E+01
    -14.343  0.0000E+00  0.2000E+01
    -14.255  0.0000E+00  0.2000E+01
    -14.168  0.0000E+00  0.2000E+01
    -14.080  0.0000E+00  0.2000E+01
    -13.992  0.0000E+00  0.2000E+01
    -13.904  0.0000E+00  0.2000E+01
    -13.816  0.0000E+00  0.2000E+01
    -13.728  0.0000E+00  0.2000E+01
    -13.640  0.0000E+00  0.2000E+01
    -13.552  0.0000E+00  0.2000E+01
    -13.464  0.0000E+00  0.2000E+01
    -13.377  0.0000E+00  0.2000E+01
    -13.289  0.0000E+00  0.2000E+01
    -13.201  0.0000E+00  0.2000E+01
    -13.113  0.0000E+00  0.2000E+01
    -13.025  0.0000E+00  0.2000E+01
    -12.937  0.0000E+00  0.2000E+01
    -12.849  0.0000E+00  0.2000E+01
    -12.761  0.0000E+00  0.2000E+01
    -12.673  0.0000E+00  0.2000E+01
    -12.586  0.0000E+00  0.2000E+01
    -12.498  0.0000E+00  0.2000E+01
    -12.410  0.0000E+00  0.2000E+01
    -12.322  0.0000E+00  0.2000E+01
    -12.234  0.0000E+00  0.2000E+01
    -12.146  0.0000E+00  0.2000E+01
    -12.058  0.0000E+00  0.2000E+01
    -11.970  0.0000E+00  0.2000E+01
    -11.883  0.0000E+00  0.2000E+01
    -11.795  0.0000E+00  0.2000E+01
    -11.707  0.0000E+00  0.2000E+01
    -11.619  0.0000E+00  0.2000E+01
    -11.531  0.0000E+00  0.2000E+01
    -11.443  0.0000E+00  0.2000E+01
    -11.355  0.0000E+00  0.2000E+01
    -11.267  0.0000E+00  0.2000E+01
    -11.179  0.0000E+00  0.2000E+01
    -11.092  0.0000E+00  0.2000E+01
    -11.004  0.0000E+00  0.2000E+01
    -10.916  0.0000E+00  0.2000E+01
    -10.828  0.0000E+00  0.2000E+01
    -10.740  0.0000E+00  0.2000E+01
    -10.652  0.0000E+00  0.2000E+01
    -10.564  0.0000E+00  0.2000E+01
    -10.476  0.0000E+00  0.2000E+01
    -10.389  0.0000E+00  0.2000E+01
    -10.301  0.0000E+00  0.2000E+01
    -10.213  0.0000E+00  0.2000E+01
    -10.125  0.0000E+00  0.2000E+01
    -10.037  0.0000E+00  0.2000E+01
     -9.949  0.0000E+00  0.2000E+01
     -9.861  0.0000E+00  0.2000E+01
     -9.773  0.0000E+00  0.2000E+01
     -9.685  0.0000E+00  0.2000E+01
     -9.598  0.0000E+00  0.2000E+01
     -9.510  0.0000E+00  0.2000E+01
     -9.422  0.0000E+00  0.2000E+01
     -9.334  0.0000E+00  0.2000E+01
     -9.246  0.0000E+00  0.2000E+01
     -9.158  0.0000E+00  0.2000E+01
     -9.070 -0.2900E-29  0.2000E+01
     -8.982 -0.3353E-23  0.2000E+01
     -8.894 -0.8160E-18  0.2000E+01
     -8.807 -0.4038E-13  0.2000E+01
     -8.719 -0.4252E-09  0.2000E+01
     -8.631 -0.9159E-06  0.2000E+01
     -8.543 -0.3931E-03  0.2000E+01
     -8.455 -0.3121E-01  0.1997E+01
     -8.367 -0.3239E+00  0.1969E+01
     -8.279  0.1621E+01  0.2111E+01
     -8.191  0.7526E+01  0.2773E+01
     -8.104  0.2983E+01  0.3035E+01
     -8.016 -0.5188E+00  0.2989E+01
     -7.928  0.5758E-01  0.2994E+01
     -7.840  0.5838E+01  0.3507E+01
     -7.752  0.5709E+01  0.4009E+01
     -7.664  0.7534E-01  0.4016E+01
     -7.576 -0.1726E+00  0.4001E+01
     -7.488 -0.7091E-02  0.4000E+01
     -7.400 -0.3429E-01  0.3997E+01
     -7.313 -0.4675E+00  0.3956E+01
     -7.225  0.1027E+01  0.4046E+01
     -7.137  0.1378E+02  0.5258E+01
     -7.049  0.1737E+02  0.6784E+01
     -6.961  0.3165E+01  0.7062E+01
     -6.873  0.5053E+01  0.7506E+01
     -6.785  0.6728E+01  0.8098E+01
     -6.697  0.7383E+01  0.8747E+01
     -6.610  0.3201E+01  0.9028E+01
     -6.522 -0.9909E+00  0.8941E+01
     -6.434  0.4060E+01  0.9298E+01
     -6.346  0.1470E+02  0.1059E+02
     -6.258  0.5047E+01  0.1103E+02
     -6.170  0.1165E+02  0.1206E+02
     -6.082  0.3097E+02  0.1478E+02
     -5.994  0.3598E+02  0.1794E+02
     -5.906  0.3079E+02  0.2065E+02
     -5.819  0.2966E+02  0.2325E+02
     -5.731  0.5681E+02  0.2825E+02
     -5.643  0.3920E+02  0.3169E+02
     -5.555  0.2893E+02  0.3423E+02
     -5.467  0.4192E+02  0.3792E+02
     -5.379  0.5750E+02  0.4297E+02
     -5.291  0.8841E+02  0.5074E+02
     -5.203  0.9677E+02  0.5925E+02
     -5.115  0.5794E+02  0.6434E+02
     -5.028  0.5181E+02  0.6889E+02
     -4.940  0.5314E+02  0.7356E+02
     -4.852  0.4743E+02  0.7773E+02
     -4.764  0.3550E+02  0.8085E+02
     -4.676  0.5333E+02  0.8554E+02
     -4.588  0.7951E+02  0.9253E+02
     -4.500  0.5915E+02  0.9772E+02
     -4.412  0.5778E+02  0.1028E+03
     -4.325  0.7985E+02  0.1098E+03
     -4.237  0.6798E+02  0.1158E+03
     -4.149  0.6610E+02  0.1216E+03
     -4.061  0.8307E+02  0.1289E+03
     -3.973  0.7188E+02  0.1352E+03
     -3.885  0.7331E+02  0.1417E+03
     -3.797  0.8821E+02  0.1494E+03
     -3.709  0.9161E+02  0.1575E+03
     -3.621  0.1051E+03  0.1667E+03
     -3.534  0.1065E+03  0.1761E+03
     -3.446  0.1194E+03  0.1866E+03
     -3.358  0.1159E+03  0.1967E+03
     -3.270  0.8478E+02  0.2042E+03
     -3.182  0.8245E+02  0.2114E+03
     -3.094  0.1003E+03  0.2203E+03
     -3.006  0.6976E+02  0.2264E+03
     -2.918  0.5982E+02  0.2316E+03
     -2.830  0.8406E+02  0.2390E+03
     -2.743  0.9489E+02  0.2474E+03
     -2.655  0.6909E+02  0.2534E+03
     -2.567  0.7490E+02  0.2600E+03
     -2.479  0.7647E+02  0.2667E+03
     -2.391  0.7297E+02  0.2732E+03
     -2.303  0.7835E+02  0.2800E+03
     -2.215  0.8605E+02  0.2876E+03
     -2.127  0.9427E+02  0.2959E+03
     -2.040  0.9075E+02  0.3039E+03
     -1.952  0.9660E+02  0.3124E+03
     -1.864  0.7317E+02  0.3188E+03
     -1.776  0.5668E+02  0.3238E+03
     -1.688  0.8341E+02  0.3311E+03
     -1.600  0.1303E+03  0.3426E+03
     -1.512  0.1399E+03  0.3548E+03
     -1.424  0.9941E+02  0.3636E+03
     -1.336  0.8452E+02  0.3710E+03
     -1.249  0.5172E+02  0.3756E+03
     -1.161  0.2794E+02  0.3780E+03
     -1.073  0.1512E+02  0.3793E+03
     -0.985  0.1557E+02  0.3807E+03
     -0.897  0.3206E+02  0.3835E+03
     -0.809  0.2662E+02  0.3859E+03
     -0.721  0.1967E+02  0.3876E+03
     -0.633  0.1512E+02  0.3889E+03
     -0.546  0.1451E+02  0.3902E+03
     -0.458  0.2287E+02  0.3922E+03
     -0.370  0.1648E+02  0.3937E+03
     -0.282  0.6124E+01  0.3942E+03
     -0.194  0.1282E+02  0.3953E+03
     -0.106  0.7759E+01  0.3960E+03
     -0.018  0.6503E+01  0.3966E+03
      0.070  0.1803E+02  0.3982E+03
      0.158  0.9730E+01  0.3990E+03
      0.245 -0.1850E+00  0.3990E+03
      0.333  0.8100E+01  0.3997E+03
      0.421  0.2249E+02  0.4017E+03
      0.509  0.2206E+02  0.4036E+03
      0.597  0.4655E+01  0.4040E+03
      0.685  0.1256E+00  0.4040E+03
      0.773  0.1273E+02  0.4052E+03
      0.861  0.1864E+02  0.4068E+03
      0.949  0.1772E+02  0.4084E+03
      1.036  0.1899E+02  0.4100E+03
      1.124  0.9301E+01  0.4108E+03
      1.212  0.5755E+01  0.4114E+03
      1.300  0.1451E+02  0.4126E+03
      1.388  0.1321E+02  0.4138E+03
      1.476  0.1051E+02  0.4147E+03
      1.564  0.6512E+01  0.4153E+03
      1.652  0.6562E+01  0.4159E+03
      1.739  0.4439E+01  0.4163E+03
      1.827  0.1342E+02  0.4174E+03
      1.915  0.1902E+02  0.4191E+03
      2.003  0.9360E+01  0.4199E+03
      2.091  0.6491E+01  0.4205E+03
      2.179  0.2408E+02  0.4226E+03
      2.267  0.1518E+02  0.4239E+03
      2.355  0.5880E+01  0.4245E+03
      2.443  0.1247E+02  0.4256E+03
      2.530  0.5017E+01  0.4260E+03
      2.618  0.6469E+00  0.4261E+03
      2.706  0.1232E+02  0.4271E+03
      2.794  0.1776E+02  0.4287E+03
      2.882  0.2846E+02  0.4312E+03
      2.970  0.2330E+02  0.4332E+03
      3.058  0.1409E+02  0.4345E+03
      3.146  0.6230E+01  0.4350E+03
      3.233 -0.1675E+00  0.4350E+03
      3.321  0.5573E+01  0.4355E+03
      3.409  0.1043E+02  0.4364E+03
      3.497  0.1604E+02  0.4378E+03
      3.585  0.1519E+02  0.4392E+03
      3.673  0.1328E+02  0.4403E+03
      3.761  0.7420E+01  0.4410E+03
      3.849 -0.4301E-02  0.4410E+03
      3.937  0.7845E+01  0.4417E+03
      4.024  0.2168E+02  0.4436E+03
      4.112  0.2732E+02  0.4460E+03
      4.200  0.1176E+02  0.4470E+03
      4.288  0.8143E+01  0.4477E+03
      4.376  0.1127E+02  0.4487E+03
      4.464  0.8699E+01  0.4495E+03
      4.552  0.1799E+02  0.4511E+03
      4.640  0.1094E+02  0.4520E+03
      4.728  0.7814E+01  0.4527E+03
      4.815  0.1624E+02  0.4541E+03
      4.903  0.1796E+02  0.4557E+03
      4.991  0.3703E+01  0.4561E+03
      5.079  0.4460E+01  0.4564E+03
      5.167  0.1257E+02  0.4575E+03
      5.255  0.1792E+02  0.4591E+03
      5.343  0.1670E+02  0.4606E+03
      5.431  0.1436E+02  0.4619E+03
      5.518  0.1415E+02  0.4631E+03
      5.606  0.1351E+02  0.4643E+03
      5.694  0.1611E+02  0.4657E+03
      5.782  0.1940E+02  0.4674E+03
      5.870  0.2487E+02  0.4696E+03
      5.958  0.3372E+02  0.4726E+03
      6.046  0.2593E+02  0.4748E+03
      6.134  0.2341E+02  0.4769E+03
      6.222  0.1532E+02  0.4782E+03
      6.309  0.1715E+01  0.4784E+03
      6.397 -0.8822E+00  0.4783E+03
      6.485  0.8131E+00  0.4784E+03
      6.573  0.7511E+01  0.4790E+03
      6.661  0.1796E+02  0.4806E+03
      6.749  0.2065E+02  0.4824E+03
      6.837  0.1272E+02  0.4836E+03
      6.925  0.5110E+01  0.4840E+03
      7.012  0.1945E+00  0.4840E+03
      7.100 -0.1951E+00  0.4840E+03
      7.188 -0.1247E-01  0.4840E+03
      7.276 -0.1326E-03  0.4840E+03
      7.364 -0.2772E-06  0.4840E+03
      7.452 -0.1187E-09  0.4840E+03
      7.540 -0.1095E-13  0.4840E+03
      7.628  0.0000E+00  0.4840E+03
      7.716  0.0000E+00  0.4840E+03
      7.803  0.0000E+00  0.4840E+03
      7.891  0.0000E+00  0.4840E+03
      7.979  0.0000E+00  0.4840E+03
      8.067  0.0000E+00  0.4840E+03
