 vasp.6.4.3 19Mar24 (build Oct  2 2024 09:01:45) complex                         
 executed on             LinuxGNU date 2025.02.17  19:40:00
 running   48 mpi-ranks, with    1 threads/rank, on    1 nodes
 distrk:  each k-point on   48 cores,    1 groups
 distr:  one band on NCORE=  24 cores,    2 groups


--------------------------------------------------------------------------------------------------------


 INCAR:
   ENCUT = 400.000000
   SIGMA = 0.100000
   EDIFF = 1.00e-04
   EDIFFG = -3.00e-02
   ALGO = Fast
   GGA = PE
   PREC = Accurate
   IBRION = -1
   ICHARG = 2
   IDIPOL = 3
   ISMEAR = 1
   ISYM = 0
   NPAR = 2
   LCHARG = .FALSE.
   LDIPOL = .TRUE.
   LWAVE = .FALSE.
   LREAL = Auto

 POTCAR:    PAW_PBE Au 04Oct2007                  
 POTCAR:    PAW_PBE O 08Apr2002                   
 POTCAR:    PAW_PBE Au 04Oct2007                  
   SHA256 =  d0044ae04e2bdce24051b198fc5c053d722a5bc6fe3c3b100514a13fc5d2db88 Au/POTCAR             
   COPYR  = (c) Copyright 04Oct2007 Georg Kresse                                                    
   COPYR  = This file is part of the software VASP. Any use, copying, and all other rights are regul
   COPYR  = If you do not have a valid VASP license, you may not use, copy or distribute this file. 
   VRHFIN =Au: s1d10                                                                                
   LEXCH  = PE                                                                                      
   EATOM  =   926.0867 eV,   68.0654 Ry                                                             
                                                                                                    
   TITEL  = PAW_PBE Au 04Oct2007                                                                    
   LULTRA =        F    use ultrasoft PP ?                                                          
   IUNSCR =        1    unscreen: 0-lin 1-nonlin 2-no                                               
   RPACOR =    2.330    partial core radius                                                         
   POMASS =  196.966; ZVAL   =   11.000    mass and valenz                                          
   RCORE  =    2.500    outmost cutoff radius                                                       
   RWIGS  =    2.840; RWIGS  =    1.503    wigner-seitz radius (au A)                               
   ENMAX  =  229.943; ENMIN  =  172.457 eV                                                          
   ICORE  =        3    local potential                                                             
   LCOR   =        T    correct aug charges                                                         
   LPAW   =        T    paw PP                                                                      
   EAUG   =  356.670                                                                                
   DEXC   =    0.000                                                                                
   RMAX   =    2.562    core radius for proj-oper                                                   
   RAUG   =    1.300    factor for augmentation sphere                                              
   RDEP   =    2.598    radius for radial grids                                                     
   RDEPT  =    2.193    core radius for aug-charge                                                  
                                                                                                    
   Atomic configuration                                                                             
   16 entries                                                                                       
     n  l   j            E        occ.                                                              
     1  0  0.50    -80748.5001   2.0000                                                             
     2  0  0.50    -14244.7466   2.0000                                                             
     2  1  1.50    -12310.9591   6.0000                                                             
     3  0  0.50     -3362.1768   2.0000                                                             
     3  1  1.50     -2801.5463   6.0000                                                             
     3  2  2.50     -2203.8206  10.0000                                                             
     4  0  0.50      -729.8168   2.0000                                                             
     4  1  1.50      -546.0527   6.0000                                                             
     4  2  2.50      -325.7302  10.0000                                                             
     4  3  3.50       -81.1472  14.0000                                                             
     5  0  0.50      -108.3201   2.0000                                                             
     5  1  1.50       -59.7479   6.0000                                                             
     5  2  2.50        -6.8783  10.0000                                                             
     6  0  0.50        -5.7602   1.0000                                                             
     6  1  1.50        -6.8029   0.0000                                                             
     5  3  2.50        -1.3606   0.0000                                                             
   Description                                                                                      
     l       E           TYP  RCUT    TYP  RCUT                                                     
     2     -6.8782861     23  2.500                                                                 
     2     -8.2388687     23  2.500                                                                 
     0     -5.7601759     23  2.500                                                                 
     0     -0.8493231     23  2.500                                                                 
     1     -2.7211652     23  2.500                                                                 
     1     27.2116520     23  2.500                                                                 
     3     -1.3605826     23  2.500                                                                 
  local pseudopotential read in
  partial core-charges read in
  partial kinetic energy density read in
  atomic valenz-charges read in
  non local Contribution for L=           2  read in
    real space projection operators read in
  non local Contribution for L=           2  read in
    real space projection operators read in
  non local Contribution for L=           0  read in
    real space projection operators read in
  non local Contribution for L=           0  read in
    real space projection operators read in
  non local Contribution for L=           1  read in
    real space projection operators read in
  non local Contribution for L=           1  read in
    real space projection operators read in
    PAW grid and wavefunctions read in

   number of l-projection  operators is LMAX  =           6
   number of lm-projection operators is LMMAX =          18

 POTCAR:    PAW_PBE O 08Apr2002                   
   SHA256 =  818f92134a0a090dccd8ba1447fa70422a3b330e708bb4f08108d8ae51209ddf O/POTCAR              
   COPYR  = (c) Copyright 08Apr2002 Georg Kresse                                                    
   COPYR  = This file is part of the software VASP. Any use, copying, and all other rights are regul
   COPYR  = If you do not have a valid VASP license, you may not use, copy or distribute this file. 
   VRHFIN =O: s2p4                                                                                  
   LEXCH  = PE                                                                                      
   EATOM  =   432.3788 eV,   31.7789 Ry                                                             
                                                                                                    
   TITEL  = PAW_PBE O 08Apr2002                                                                     
   LULTRA =        F    use ultrasoft PP ?                                                          
   IUNSCR =        1    unscreen: 0-lin 1-nonlin 2-no                                               
   RPACOR =    1.200    partial core radius                                                         
   POMASS =   16.000; ZVAL   =    6.000    mass and valenz                                          
   RCORE  =    1.520    outmost cutoff radius                                                       
   RWIGS  =    1.550; RWIGS  =    0.820    wigner-seitz radius (au A)                               
   ENMAX  =  400.000; ENMIN  =  300.000 eV                                                          
   ICORE  =        2    local potential                                                             
   LCOR   =        T    correct aug charges                                                         
   LPAW   =        T    paw PP                                                                      
   EAUG   =  605.392                                                                                
   DEXC   =    0.000                                                                                
   RMAX   =    1.553    core radius for proj-oper                                                   
   RAUG   =    1.300    factor for augmentation sphere                                              
   RDEP   =    1.550    radius for radial grids                                                     
   RDEPT  =    1.329    core radius for aug-charge                                                  
                                                                                                    
   Atomic configuration                                                                             
    4 entries                                                                                       
     n  l   j            E        occ.                                                              
     1  0  0.50      -514.6923   2.0000                                                             
     2  0  0.50       -23.9615   2.0000                                                             
     2  1  0.50        -9.0305   4.0000                                                             
     3  2  1.50        -9.5241   0.0000                                                             
   Description                                                                                      
     l       E           TYP  RCUT    TYP  RCUT                                                     
     0    -23.9615318     23  1.200                                                                 
     0     -9.5240782     23  1.200                                                                 
     1     -9.0304911     23  1.520                                                                 
     1      8.1634956     23  1.520                                                                 
     2     -9.5240782      7  1.500                                                                 
  local pseudopotential read in
  partial core-charges read in
  partial kinetic energy density read in
  kinetic energy density of atom read in
  atomic valenz-charges read in
  non local Contribution for L=           0  read in
    real space projection operators read in
  non local Contribution for L=           0  read in
    real space projection operators read in
  non local Contribution for L=           1  read in
    real space projection operators read in
  non local Contribution for L=           1  read in
    real space projection operators read in
    PAW grid and wavefunctions read in

   number of l-projection  operators is LMAX  =           4
   number of lm-projection operators is LMMAX =           8

 Optimization of the real space projectors (new method)

 maximal supplied QI-value         = 15.12
 optimisation between [QCUT,QGAM] = [ 10.13, 20.41] = [ 28.73,116.64] Ry 
 Optimized for a Real-space Cutoff    1.55 Angstroem

   l    n(q)    QCUT    max X(q) W(low)/X(q) W(high)/X(q)  e(spline) 
   2      9    10.129    60.898    0.14E-03    0.27E-03    0.16E-06
   2      9    10.129    58.894    0.14E-03    0.27E-03    0.17E-06
   0      9    10.129   109.617    0.51E-04    0.23E-04    0.60E-07
   0      9    10.129    75.026    0.50E-04    0.22E-04    0.58E-07
   1      9    10.129    16.344    0.46E-04    0.82E-04    0.13E-06
   1      9    10.129    10.160    0.41E-04    0.64E-04    0.11E-06
 Optimization of the real space projectors (new method)

 maximal supplied QI-value         = 24.76
 optimisation between [QCUT,QGAM] = [ 10.15, 20.30] = [ 28.85,115.39] Ry 
 Optimized for a Real-space Cutoff    1.51 Angstroem

   l    n(q)    QCUT    max X(q) W(low)/X(q) W(high)/X(q)  e(spline) 
   0      9    10.150    20.381    0.17E-03    0.18E-03    0.41E-06
   0      9    10.150    15.268    0.18E-03    0.20E-03    0.43E-06
   1      9    10.150     5.964    0.16E-03    0.20E-03    0.36E-06
   1      9    10.150     5.382    0.13E-03    0.16E-03    0.33E-06
  PAW_PBE Au 04Oct2007                  :
 energy of atom  1       EATOM= -926.0867
 kinetic energy error for atom=    0.0062 (will be added to EATOM!!)
  PAW_PBE O 08Apr2002                   :
 energy of atom  2       EATOM= -432.3788
 kinetic energy error for atom=    0.1156 (will be added to EATOM!!)


 POSCAR: Au O
  positions in cartesian coordinates
  No initial velocities read in


 exchange-correlation table for PE
   RHO(1)=    0.500       N(1)  =     2000
   RHO(2)=  100.500       N(2)  =     4000



--------------------------------------------------------------------------------------------------------


 ion  position               nearest neighbor table
   1  0.000  0.000  0.000-  12 2.93  16 2.93  10 2.93   8 2.93   6 2.93   4 2.93   7 2.93   3 2.93
                             2 2.93
   2  0.333  0.000  0.000-  10 2.93  11 2.93  17 2.93   3 2.93   9 2.93   4 2.93   5 2.93   8 2.93
                             1 2.93
   3  0.667  0.000  0.000-  11 2.93  18 2.93   2 2.93  12 2.93   5 2.93   7 2.93   9 2.93   6 2.93
                             1 2.93
   4  0.000  0.333  0.000-  10 2.93  13 2.93  15 2.93   7 2.93   9 2.93   2 2.93   1 2.93   6 2.93
                             5 2.93
   5  0.333  0.333  0.000-  14 2.93  11 2.93  13 2.93   8 2.93   6 2.93   3 2.93   7 2.93   2 2.93
                             4 2.93
   6  0.667  0.333  0.000-  12 2.93  14 2.93  15 2.93   9 2.93   8 2.93   5 2.93   1 2.93   3 2.93
                             4 2.93
   7  0.000  0.667  0.000-  13 2.93  18 2.93   4 2.93  16 2.93   5 2.93   3 2.93   1 2.93   9 2.93
                             8 2.93
   8  0.333  0.667  0.000-  14 2.93  16 2.93  17 2.93   6 2.93   5 2.93   9 2.93   1 2.93   2 2.93
                             7 2.93
   9  0.667  0.667  0.000-  15 2.93  17 2.93   6 2.93   8 2.93  18 2.93   4 2.93   2 2.93   3 2.93
                             7 2.93
  10  0.111  0.111  0.103-  26 2.93   4 2.93   2 2.93  13 2.93  11 2.93   1 2.93  17 2.93  15 2.93
                            16 2.93  12 2.93  19 2.94  20 2.97
  11  0.444  0.111  0.103-  27 2.92  21 2.92   5 2.93   2 2.93   3 2.93  13 2.93  14 2.93  10 2.93
                            18 2.93  17 2.93  12 2.93  20 2.99
  12  0.778  0.111  0.103-  25 2.89   6 2.93   1 2.93  15 2.93   3 2.93  14 2.93  16 2.93  18 2.93
                            11 2.93  10 2.93  19 2.95  21 2.96
  13  0.111  0.444  0.103-  23 2.92  22 2.93   7 2.93   5 2.93   4 2.93  10 2.93  11 2.93  14 2.93
                            18 2.93  16 2.93  15 2.93  20 2.98
  14  0.444  0.444  0.103-  24 2.88  21 2.93   5 2.93   8 2.93   6 2.93  11 2.93  13 2.93  12 2.93
                            16 2.93  17 2.93  15 2.93  23 2.94
  15  0.778  0.444  0.103-  24 2.90  22 2.93  19 2.93   9 2.93   4 2.93   6 2.93  12 2.93  10 2.93
                            17 2.93  18 2.93  14 2.93  13 2.93
  16  0.111  0.778  0.103-  25 2.90   8 2.93   1 2.93  17 2.93   7 2.93  14 2.93  12 2.93  13 2.93
                            10 2.93  18 2.93  26 2.94  23 2.95
  17  0.444  0.778  0.103-  24 2.89  27 2.92   9 2.93   2 2.93   8 2.93  16 2.93  10 2.93  15 2.93
                            11 2.93  14 2.93  18 2.93  26 2.94
  18  0.778  0.778  0.103-  25 2.89   7 2.93   3 2.93   9 2.93  13 2.93  11 2.93  15 2.93  12 2.93
                            17 2.93  16 2.93  22 2.94  27 2.95
  19  0.889  0.224  0.207-  28 2.90  22 2.90  20 2.91  15 2.93  26 2.93  24 2.94  10 2.94  12 2.95
                            33 2.95  25 2.95  21 2.98  31 3.01
  20  0.220  0.222  0.209-  22 2.91  19 2.91  27 2.91  26 2.91  23 2.91  21 2.91  10 2.97  13 2.98
                            11 2.99  32 3.02  29 3.08  31 3.10
  21  0.551  0.223  0.207-  33 2.91  23 2.91  27 2.91  20 2.91  11 2.92  30 2.92  14 2.93  24 2.94
                            25 2.95  12 2.96  19 2.98  32 3.03
  22  0.890  0.553  0.207-  19 2.90  36 2.90  20 2.91  23 2.91  15 2.93  13 2.93  34 2.94  18 2.94
                            25 2.95  24 2.96  31 2.96  27 2.99
  23  0.221  0.553  0.207-  35 2.91  21 2.91  22 2.91  20 2.91  13 2.92  34 2.93  24 2.94  14 2.94
                            25 2.95  16 2.95  26 2.98  32 3.02
  24  0.553  0.555  0.204-  14 2.88  17 2.89  15 2.90  36 2.90  19 2.94  26 2.94  21 2.94  23 2.94
                            33 2.95  22 2.96  27 2.96  35 2.96
  25  0.888  0.889  0.204-  18 2.89  12 2.89  16 2.90  28 2.92  34 2.93  30 2.94  23 2.95  21 2.95
                            26 2.95  19 2.95  22 2.95  27 2.95
  26  0.222  0.891  0.207-  27 2.90  28 2.91  20 2.91  10 2.93  19 2.93  24 2.94  17 2.94  35 2.94
                            16 2.94  25 2.95  23 2.98  29 3.00
  27  0.551  0.892  0.206-  36 2.90  26 2.90  21 2.91  20 2.91  11 2.92  17 2.92  30 2.94  18 2.95
                            25 2.95  24 2.96  29 2.96  22 2.99
  28  0.997  1.000  0.308-  30 2.87  34 2.87  19 2.90  26 2.91  25 2.92  35 2.96  33 2.96  31 3.01
                            29 3.01
  29  0.348  0.979  0.315-  37 2.12  36 2.77  35 2.86  30 2.94  27 2.96  26 3.00  28 3.01  20 3.08
                            32 3.08  31 3.28
  30  0.671  0.999  0.309-  34 2.87  28 2.87  33 2.91  21 2.92  29 2.94  25 2.94  27 2.94  32 2.98
                            36 2.98
  31  0.975  0.351  0.316-  37 2.12  36 2.77  33 2.86  34 2.94  22 2.96  19 3.01  28 3.01  32 3.09
                            20 3.10  29 3.28
  32  0.333  0.336  0.316-  37 2.27  33 2.87  35 2.87  34 2.97  30 2.98  23 3.02  20 3.02  21 3.03
                            29 3.08  31 3.09
  33  0.659  0.335  0.309-  31 2.86  32 2.87  35 2.88  21 2.91  30 2.91  36 2.92  19 2.95  24 2.95
                            28 2.96
  34  0.996  0.674  0.309-  30 2.87  28 2.87  35 2.91  23 2.93  25 2.93  31 2.94  22 2.94  32 2.97
                            36 2.98
  35  0.332  0.663  0.309-  29 2.86  32 2.87  33 2.88  23 2.91  34 2.91  36 2.92  26 2.94  24 2.96
                            28 2.96
  36  0.662  0.665  0.307-  31 2.77  29 2.77  27 2.90  22 2.90  24 2.90  35 2.92  33 2.92  30 2.98
                            34 2.98
  37  0.205  0.208  0.366-  31 2.12  29 2.12  32 2.27


IMPORTANT INFORMATION: All symmetrisations will be switched off!
NOSYMM: (Re-)initialisation of all symmetry stuff for point group C_1.


----------------------------------------------------------------------------------------

                                     Primitive cell                                     

  volume of cell :    1556.3341

  direct lattice vectors                    reciprocal lattice vectors
     8.803479426  0.000000000  0.000000000     0.113591451 -0.065582055  0.000000000
     4.401739713  7.624036824  0.000000000     0.000000000  0.131164109  0.000000000
     0.000000000  0.000000000 23.188010851     0.000000000  0.000000000  0.043125735

  length of vectors
     8.803479426  8.803479426 23.188010851     0.131164109  0.131164109  0.043125735

  position of ions in fractional coordinates (direct lattice)
     0.000000000  0.000000000  0.000000000
     0.333333333  0.000000000  0.000000000
     0.666666667  0.000000000  0.000000000
     0.000000000  0.333333333  0.000000000
     0.333333333  0.333333333  0.000000000
     0.666666667  0.333333333  0.000000000
     0.000000000  0.666666667  0.000000000
     0.333333333  0.666666667  0.000000000
     0.666666667  0.666666667  0.000000000
     0.111111111  0.111111111  0.103329416
     0.444444444  0.111111111  0.103329416
     0.777777778  0.111111111  0.103329416
     0.111111111  0.444444444  0.103329416
     0.444444444  0.444444444  0.103329416
     0.777777778  0.444444444  0.103329416
     0.111111111  0.777777778  0.103329416
     0.444444444  0.777777778  0.103329416
     0.777777778  0.777777778  0.103329416
     0.888857233  0.223999373  0.206813003
     0.220092624  0.222386446  0.208899908
     0.550992004  0.222564542  0.206709267
     0.890129968  0.552843362  0.206514724
     0.220739680  0.552816170  0.206723352
     0.553344178  0.555092971  0.204208923
     0.887703146  0.889362201  0.204448572
     0.221993583  0.890843310  0.206747993
     0.550943284  0.892084312  0.206435520
     0.996640603  0.999732412  0.307768863
     0.348022466  0.978870044  0.314966848
     0.670563603  0.999101363  0.309200082
     0.974770503  0.351472709  0.315514199
     0.332721734  0.336373755  0.315643389
     0.659165674  0.334968465  0.308922980
     0.995960283  0.673595105  0.309247729
     0.331758454  0.662606970  0.308896356
     0.661906651  0.665363693  0.306637060
     0.204667066  0.207858742  0.365709491

  ion indices of the primitive-cell ions
   primitive index   ion index
                 1           1
                 2           2
                 3           3
                 4           4
                 5           5
                 6           6
                 7           7
                 8           8
                 9           9
                10          10
                11          11
                12          12
                13          13
                14          14
                15          15
                16          16
                17          17
                18          18
                19          19
                20          20
                21          21
                22          22
                23          23
                24          24
                25          25
                26          26
                27          27
                28          28
                29          29
                30          30
                31          31
                32          32
                33          33
                34          34
                35          35
                36          36
                37          37

----------------------------------------------------------------------------------------



 KPOINTS: KPOINTS created by Atomic Simulation Env

Automatic generation of k-mesh.
 Grid dimensions read from file:
 generate k-points for:    2    2    1

 Generating k-lattice:

  Cartesian coordinates                     Fractional coordinates (reciprocal lattice)
     0.056795725 -0.032791027  0.000000000     0.500000000  0.000000000  0.000000000
     0.000000000  0.065582055  0.000000000     0.000000000  0.500000000  0.000000000
     0.000000000  0.000000000  0.043125735     0.000000000  0.000000000  1.000000000

  Length of vectors
     0.065582055  0.065582055  0.043125735

  Shift w.r.t. Gamma in fractional coordinates (k-lattice)
     0.500000000  0.500000000  0.000000000

 
 Subroutine IBZKPT returns following result:
 ===========================================
 
 Found      6 irreducible k-points:
 
 Following reciprocal coordinates:
            Coordinates               Weight
  0.250000  0.250000  0.000000      2.000000
  0.000000  0.250000  0.000000      2.000000
 -0.250000  0.000000  0.000000      2.000000
 -0.250000  0.250000  0.000000      2.000000
  0.500000 -0.250000  0.000000      2.000000
 -0.250000  0.500000  0.000000      2.000000
 
 Following cartesian coordinates:
            Coordinates               Weight
  0.028398  0.016396  0.000000      2.000000
  0.000000  0.032791  0.000000      2.000000
 -0.028398  0.016396  0.000000      2.000000
 -0.028398  0.049187  0.000000      2.000000
  0.056796 -0.065582  0.000000      2.000000
 -0.028398  0.081978  0.000000      2.000000
 


--------------------------------------------------------------------------------------------------------




 Dimension of arrays:
   k-points           NKPTS =      6   k-points in BZ     NKDIM =      6   number of bands    NBANDS=    242
   number of dos      NEDOS =    301   number of ions     NIONS =     37
   non local maximal  LDIM  =      6   non local SUM 2l+1 LMDIM =     18
   total plane-waves  NPLWV = 576000
   max r-space proj   IRMAX =   5865   max aug-charges    IRDMAX=  22830
   dimension x,y,z NGX =    60 NGY =   60 NGZ =  160
   dimension x,y,z NGXF=   120 NGYF=  120 NGZF=  320
   support grid    NGXF=   120 NGYF=  120 NGZF=  320
   ions per type =              36   1
   NGX,Y,Z   is equivalent  to a cutoff of  11.33, 11.33, 11.47 a.u.
   NGXF,Y,Z  is equivalent  to a cutoff of  22.66, 22.66, 22.94 a.u.

 SYSTEM =  unknown system                          
 POSCAR =  Au O                                    

 Startparameter for this run:
   NWRITE =      2    write-flag & timer
   PREC   = accura    normal or accurate (medium, high low for compatibility)
   ISTART =      0    job   : 0-new  1-cont  2-samecut
   ICHARG =      2    charge: 1-file 2-atom 10-const
   ISPIN  =      1    spin polarized calculation?
   LNONCOLLINEAR =      F non collinear calculations
   LSORBIT =      F    spin-orbit coupling
   INIWAV =      1    electr: 0-lowe 1-rand  2-diag
   LASPH  =      F    aspherical Exc in radial PAW
 Electronic Relaxation 1
   ENCUT  =  400.0 eV  29.40 Ry    5.42 a.u.  14.36 14.36 37.81*2*pi/ulx,y,z
   ENINI  =  400.0     initial cutoff
   ENAUG  =  605.4 eV  augmentation charge cutoff
   NELM   =     60;   NELMIN=  2; NELMDL=  0     # of ELM steps 
   EDIFF  = 0.1E-03   stopping-criterion for ELM
   LREAL  =      T    real-space projection
   NLSPLINE    = F    spline interpolate recip. space projectors
   LCOMPAT=      F    compatible to vasp.4.4
   GGA_COMPAT  = T    GGA compatible to vasp.4.4-vasp.4.6
   LMAXPAW     = -100 max onsite density
   LMAXMIX     =    2 max onsite mixed and CHGCAR
   VOSKOWN=      0    Vosko Wilk Nusair interpolation
   ROPT   =   -0.00025  -0.00025
 Ionic relaxation
   EDIFFG = -.3E-01   stopping-criterion for IOM
   NSW    =      0    number of steps for IOM
   NBLOCK =      1;   KBLOCK =      1    inner block; outer block 
   IBRION =     -1    ionic relax: 0-MD 1-quasi-New 2-CG
   NFREE  =      0    steps in history (QN), initial steepest desc. (CG)
   ISIF   =      2    stress and relaxation
   IWAVPR =     10    prediction:  0-non 1-charg 2-wave 3-comb
   ISYM   =      0    0-nonsym 1-usesym 2-fastsym
   LCORR  =      T    Harris-Foulkes like correction to forces

   POTIM  = 0.5000    time-step for ionic-motion
   TEIN   =    0.0    initial temperature
   TEBEG  =    0.0;   TEEND  =   0.0 temperature during run
   SMASS  =  -3.00    Nose mass-parameter (am)
   estimated Nose-frequenzy (Omega)   =  0.10E-29 period in steps = 0.13E+47 mass=  -0.177E-26a.u.
   SCALEE = 1.0000    scale energy and forces
   NPACO  =    256;   APACO  = 10.0  distance and # of slots for P.C.
   PSTRESS=    0.0 pullay stress

  Mass of Ions in am
   POMASS = 196.97 16.00
  Ionic Valenz
   ZVAL   =  11.00  6.00
  Atomic Wigner-Seitz radii
   RWIGS  =  -1.00 -1.00
  virtual crystal weights 
   VCA    =   1.00  1.00
   NELECT =     402.0000    total number of electrons
   NUPDOWN=      -1.0000    fix difference up-down

 DOS related values:
   EMIN   =  10.00;   EMAX   =-10.00  energy-range for DOS
   EFERMI =   0.00;   METHOD = LEGACY      
   ISMEAR =     1;   SIGMA  =   0.10  broadening in eV -4-tet -1-fermi 0-gaus

 Electronic relaxation 2 (details)
   IALGO  =     68    algorithm
   LDIAG  =      T    sub-space diagonalisation (order eigenvalues)
   LSUBROT=      F    optimize rotation matrix (better conditioning)
   TURBO    =      0    0=normal 1=particle mesh
   IRESTART =      0    0=no restart 2=restart with 2 vectors
   NREBOOT  =      0    no. of reboots
   NMIN     =      0    reboot dimension
   EREF     =   0.00    reference energy to select bands
   IMIX   =      4    mixing-type and parameters
     AMIX     =   0.40;   BMIX     =  1.00
     AMIX_MAG =   1.60;   BMIX_MAG =  1.00
     AMIN     =   0.10
     WC   =   100.;   INIMIX=   1;  MIXPRE=   1;  MAXMIX= -45

 Intra band minimization:
   WEIMIN = 0.0000     energy-eigenvalue tresh-hold
   EBREAK =  0.10E-06  absolut break condition
   DEPER  =   0.30     relativ break condition  

   TIME   =   0.40     timestep for ELM

  volume/ion in A,a.u.               =      42.06       283.86
  Fermi-wavevector in a.u.,A,eV,Ry     =   1.042596  1.970220 14.789610  1.087006
  Thomas-Fermi vector in A             =   2.177268

 Write flags
   LWAVE        =      F    write WAVECAR
   LDOWNSAMPLE  =      F    k-point downsampling of WAVECAR
   LCHARG       =      F    write CHGCAR
   LVTOT        =      F    write LOCPOT, total local potential
   LVHAR        =      F    write LOCPOT, Hartree potential only
   WRT_POTENTIAL= false  ! write potential to hdf5 file
   LELF         =      F    write electronic localiz. function (ELF)
   LORBIT       =      0    0 simple, 1 ext, 2 COOP (PROOUT), +10 PAW based schemes


 Dipole corrections
   LMONO      =      F    monopole corrections only (constant potential shift)
   LDIPOL     =      T    correct potential (dipole corrections)
   IDIPOL     =      3    1-x, 2-y, 3-z, 4-all directions 
   EPSILON    =  1.0000000 bulk dielectric constant
   LVACPOTAV  =      F  vacuum potentials using an averaging scheme for the charge density
   VACPOTFLAT =  0.1000000 required flatness to determine vacuum potential
 Exchange correlation treatment:
   GGA     = PE    functional components
   XC_C    = 1    coefficients multiplying the functional components
   LIBXC   =     F    Libxc                    
   VOSKOWN =     0    Vosko Wilk Nusair interpolation
   LHFCALC =     F    Hartree Fock is set to
   LHFONE  =     F    Hartree Fock one center treatment
   AEXX    =    0.0000 exact exchange contribution

 Parameters of functionals:
   PE:
     No parameter

 Van der Waals corrections
   IVDW    =     0    specifies the selected vdW correction

 Linear response parameters
   LEPSILON=     F    determine dielectric tensor
   LRPA    =     F    only Hartree local field effects (RPA)
   LNABLA  =     F    use nabla operator in PAW spheres
   LVEL    =     F    velocity operator in full k-point grid
   CSHIFT  =0.1000    complex shift for real part using Kramers Kronig
   OMEGAMAX=  -1.0    maximum frequency
   DEG_THRESHOLD= 0.2000000E-02 threshold for treating states as degnerate
   RTIME   =   -0.100 relaxation time in fs
  (WPLASMAI=    0.000 imaginary part of plasma frequency in eV, 0.658/RTIME)
   DFIELD  = 0.0000000 0.0000000 0.0000000 field for delta impulse in time

  Optional k-point grid parameters
   LKPOINTS_OPT  =     F    use optional k-point grid
   KPOINTS_OPT_MODE=     1    mode for optional k-point grid

 Orbital magnetization related:
   ORBITALMAG=     F  switch on orbital magnetization
   LCHIMAG   =     F  perturbation theory with respect to B field
   DQ        =  0.001000  dq finite difference perturbation B field
   LLRAUG    =     F  two centre corrections for induced B field
   LBONE     =     F  B-component reconstruction in AE one-centre
   LVGVCALC  =     T  calculate vGv susceptibility
   LVGVAPPL  =     F  apply vGv susceptibility instead of pGv for G=0

 Random number generation:
   RANDOM_GENERATOR = DEFAULT
   PCG_SEED         = not used


--------------------------------------------------------------------------------------------------------


 Static calculation
 charge density and potential will be updated during run
 non-spin polarized calculation
 RMM-DIIS sequential band-by-band and
  variant of blocked Davidson during initial phase
 perform sub-space diagonalisation
    before iterative eigenvector-optimisation
 modified Broyden-mixing scheme, WC =      100.0
 initial mixing is a Kerker type mixing with AMIX =  0.4000 and BMIX =      1.0000
 Hartree-type preconditioning will be used
 using additional bands           41
 real space projection scheme for non local part
 use partial core corrections
 calculate Harris-corrections to forces   (improved forces if not selfconsistent)
 use gradient corrections 
 use of overlap-Matrix (Vanderbilt PP)
 Methfessel and Paxton  Order N= 1 SIGMA  =   0.10


--------------------------------------------------------------------------------------------------------


  energy-cutoff  :      400.00
  volume of cell :     1556.33
      direct lattice vectors                 reciprocal lattice vectors
     8.803479426  0.000000000  0.000000000     0.113591451 -0.065582055  0.000000000
     4.401739713  7.624036824  0.000000000     0.000000000  0.131164109  0.000000000
     0.000000000  0.000000000 23.188010851     0.000000000  0.000000000  0.043125735

  length of vectors
     8.803479426  8.803479426 23.188010851     0.131164109  0.131164109  0.043125735



 k-points in units of 2pi/SCALE and weight: KPOINTS created by Atomic Simulation Env
   0.02839786  0.01639551  0.00000000       0.167
   0.00000000  0.03279103  0.00000000       0.167
  -0.02839786  0.01639551  0.00000000       0.167
  -0.02839786  0.04918654  0.00000000       0.167
   0.05679573 -0.06558205  0.00000000       0.167
  -0.02839786  0.08197757  0.00000000       0.167

 k-points in reciprocal lattice and weights: KPOINTS created by Atomic Simulation Env
   0.25000000  0.25000000  0.00000000       0.167
   0.00000000  0.25000000  0.00000000       0.167
  -0.25000000  0.00000000  0.00000000       0.167
  -0.25000000  0.25000000  0.00000000       0.167
   0.50000000 -0.25000000  0.00000000       0.167
  -0.25000000  0.50000000  0.00000000       0.167

 position of ions in fractional coordinates (direct lattice) 
   0.00000000  0.00000000  0.00000000
   0.33333333  0.00000000  0.00000000
   0.66666667  0.00000000  0.00000000
   0.00000000  0.33333333  0.00000000
   0.33333333  0.33333333  0.00000000
   0.66666667  0.33333333  0.00000000
   0.00000000  0.66666667  0.00000000
   0.33333333  0.66666667  0.00000000
   0.66666667  0.66666667  0.00000000
   0.11111111  0.11111111  0.10332942
   0.44444444  0.11111111  0.10332942
   0.77777778  0.11111111  0.10332942
   0.11111111  0.44444444  0.10332942
   0.44444444  0.44444444  0.10332942
   0.77777778  0.44444444  0.10332942
   0.11111111  0.77777778  0.10332942
   0.44444444  0.77777778  0.10332942
   0.77777778  0.77777778  0.10332942
   0.88885723  0.22399937  0.20681300
   0.22009262  0.22238645  0.20889991
   0.55099200  0.22256454  0.20670927
   0.89012997  0.55284336  0.20651472
   0.22073968  0.55281617  0.20672335
   0.55334418  0.55509297  0.20420892
   0.88770315  0.88936220  0.20444857
   0.22199358  0.89084331  0.20674799
   0.55094328  0.89208431  0.20643552
   0.99664060  0.99973241  0.30776886
   0.34802247  0.97887004  0.31496685
   0.67056360  0.99910136  0.30920008
   0.97477050  0.35147271  0.31551420
   0.33272173  0.33637376  0.31564339
   0.65916567  0.33496847  0.30892298
   0.99596028  0.67359511  0.30924773
   0.33175845  0.66260697  0.30889636
   0.66190665  0.66536369  0.30663706
   0.20466707  0.20785874  0.36570949

 position of ions in cartesian coordinates  (Angst):
   0.00000000  0.00000000  0.00000000
   2.93449314  0.00000000  0.00000000
   5.86898628  0.00000000  0.00000000
   1.46724657  2.54134561  0.00000000
   4.40173971  2.54134561  0.00000000
   7.33623285  2.54134561  0.00000000
   2.93449314  5.08269122  0.00000000
   5.86898628  5.08269122  0.00000000
   8.80347943  5.08269122  0.00000000
   1.46724657  0.84711520  2.39600362
   4.40173971  0.84711520  2.39600362
   7.33623285  0.84711520  2.39600362
   2.93449314  3.38846081  2.39600362
   5.86898628  3.38846081  2.39600362
   8.80347943  3.38846081  2.39600362
   4.40173971  5.92980642  2.39600362
   7.33623285  5.92980642  2.39600362
  10.27072600  5.92980642  2.39600362
   8.81102330  1.70777947  4.79558215
   2.91646814  1.69548246  4.84397332
   5.83031795  1.69684026  4.79317673
  10.26971344  4.21489815  4.78866566
   4.37663012  4.21469084  4.79350332
   7.31472886  4.23204925  4.73519871
  11.72961730  6.78053017  4.74075570
   5.87557631  6.79182220  4.79407470
   8.77694081  6.80128364  4.78682908
  13.17446690  7.62199672  7.13654774
   7.37253977  7.46294126  7.30345468
  10.30107703  7.61718558  7.16973485
  10.12846344  2.67964088  7.31614666
   4.40973866  2.56452590  7.31914233
   7.27739544  2.55381191  7.16330941
  11.73290618  5.13551389  7.17083969
   5.83725214  5.05173994  7.16269205
   8.75583938  5.07275730  7.11030348
   2.71672238  1.58472271  8.48007564



--------------------------------------------------------------------------------------------------------


 k-point     1 :   0.2500 0.2500 0.0000  plane waves:   28271
 k-point     2 :   0.0000 0.2500 0.0000  plane waves:   28271
 k-point     3 :  -0.2500 0.0000 0.0000  plane waves:   28271
 k-point     4 :  -0.2500 0.2500 0.0000  plane waves:   28278
 k-point     5 :   0.5000-0.2500 0.0000  plane waves:   28278
 k-point     6 :  -0.2500 0.5000 0.0000  plane waves:   28278

 maximum and minimum number of plane-waves per node :      1212     1152

 maximum number of plane-waves:     28278
 maximum index in each direction: 
   IXMAX=   14   IYMAX=   14   IZMAX=   37
   IXMIN=  -14   IYMIN=  -14   IZMIN=  -37


 real space projection operators:
  total allocation   :      28790.73 KBytes
  max/ min on nodes  :       1445.30        941.09


 parallel 3D FFT for wavefunctions:
    minimum data exchange during FFTs selected (reduces bandwidth)
 parallel 3D FFT for charge:
    minimum data exchange during FFTs selected (reduces bandwidth)


 total amount of memory used by VASP MPI-rank0    61932. kBytes
=======================================================================

   base      :      30000. kBytes
   nonlr-proj:       5453. kBytes
   fftplans  :       4620. kBytes
   grid      :       7634. kBytes
   one-center:         31. kBytes
   wavefun   :      14194. kBytes

     INWAV:  cpu time      0.0000: real time      0.0000
 Broyden mixing: mesh for mixing (old mesh)
   NGX = 29   NGY = 29   NGZ = 75
  (NGX  =120   NGY  =120   NGZ  =320)
  gives a total of  63075 points

 initial charge density was supplied:
 charge density of overlapping atoms calculated
 number of electron     402.0000000 magnetization 
 keeping initial charge density in first step


--------------------------------------------------------------------------------------------------------


 Maximum index for non-local projection operator          528
 Maximum index for augmentation-charges         1033 (set IRDMAX)


--------------------------------------------------------------------------------------------------------


 First call to EWALD:  gamma=   0.153
 Maximum number of real-space cells 4x 4x 2
 Maximum number of reciprocal cells 2x 2x 5

    FEWALD:  cpu time      0.0015: real time      0.0016


--------------------------------------- Ionic step        1  -------------------------------------------




--------------------------------------- Iteration      1(   1)  ---------------------------------------


    POTLOK:  cpu time      0.0553: real time      0.0572
    SETDIJ:  cpu time      0.0113: real time      0.0114
     EDDAV:  cpu time      3.7397: real time      3.7614
       DOS:  cpu time      0.0017: real time      0.0017
    --------------------------------------------
      LOOP:  cpu time      3.8080: real time      3.8318

 eigenvalue-minimisations  :  2904
 total energy-change (2. order) : 0.2473574E+04  (-0.1592102E+05)
 number of electron     402.0000000 magnetization 
 augmentation part      402.0000000 magnetization 

 DIPCOR: dipole corrections for dipol
 direction  3 min pos   219,
 dipolmoment           0.000000      0.000000      0.000120 electrons x Angstroem
 Tr[quadrupol]     -4990.945143

 energy correction for charged system         0.000000 eV
 dipol+quadrupol energy correction           -0.000000 eV
 added-field ion interaction          0.002998 eV  (added to PSCEN)


 Free energy of the ion-electron system (eV)
  ---------------------------------------------------
  alpha Z        PSCENC =       990.63732633
  Ewald energy   TEWEN  =    112746.20483039
  -Hartree energ DENC   =   -148065.23570496
  -exchange      EXHF   =         0.00000000
  -V(xc)+E(xc)   XCENC  =       577.47655271
  PAW double counting   =     31814.05959759   -30984.71300122
  entropy T*S    EENTRO =        -0.01221916
  eigenvalues    EBANDS =      1623.99450604
  atomic energy  EATOM  =     33771.16187166
  Solvation  Ediel_sol  =         0.00000000
  ---------------------------------------------------
  free energy    TOTEN  =      2473.57375937 eV

  energy without entropy =     2473.58597853  energy(sigma->0) =     2473.57783242


--------------------------------------------------------------------------------------------------------




--------------------------------------- Iteration      1(   2)  ---------------------------------------


     EDDAV:  cpu time      4.1457: real time      4.1693
       DOS:  cpu time      0.0013: real time      0.0013
    --------------------------------------------
      LOOP:  cpu time      4.1469: real time      4.1705

 eigenvalue-minimisations  :  3352
 total energy-change (2. order) :-0.2438725E+04  (-0.2252995E+04)
 number of electron     402.0000000 magnetization 
 augmentation part      402.0000000 magnetization 

 DIPCOR: dipole corrections for dipol
 direction  3 min pos   219,
 dipolmoment           0.000000      0.000000      0.000120 electrons x Angstroem
 Tr[quadrupol]     -4990.945143

 energy correction for charged system         0.000000 eV
 dipol+quadrupol energy correction           -0.000000 eV
 added-field ion interaction          0.002998 eV  (added to PSCEN)


 Free energy of the ion-electron system (eV)
  ---------------------------------------------------
  alpha Z        PSCENC =       990.63732633
  Ewald energy   TEWEN  =    112746.20483039
  -Hartree energ DENC   =   -148065.23570496
  -exchange      EXHF   =         0.00000000
  -V(xc)+E(xc)   XCENC  =       577.47655271
  PAW double counting   =     31814.05959759   -30984.71300122
  entropy T*S    EENTRO =         0.00023085
  eigenvalues    EBANDS =      -814.74333399
  atomic energy  EATOM  =     33771.16187166
  Solvation  Ediel_sol  =         0.00000000
  ---------------------------------------------------
  free energy    TOTEN  =        34.84836934 eV

  energy without entropy =       34.84813849  energy(sigma->0) =       34.84829239


--------------------------------------------------------------------------------------------------------




--------------------------------------- Iteration      1(   3)  ---------------------------------------


     EDDAV:  cpu time      4.0593: real time      4.0818
       DOS:  cpu time      0.0013: real time      0.0013
    --------------------------------------------
      LOOP:  cpu time      4.0606: real time      4.0831

 eigenvalue-minimisations  :  3296
 total energy-change (2. order) :-0.1573573E+03  (-0.1500992E+03)
 number of electron     402.0000000 magnetization 
 augmentation part      402.0000000 magnetization 

 DIPCOR: dipole corrections for dipol
 direction  3 min pos   219,
 dipolmoment           0.000000      0.000000      0.000120 electrons x Angstroem
 Tr[quadrupol]     -4990.945143

 energy correction for charged system         0.000000 eV
 dipol+quadrupol energy correction           -0.000000 eV
 added-field ion interaction          0.002998 eV  (added to PSCEN)


 Free energy of the ion-electron system (eV)
  ---------------------------------------------------
  alpha Z        PSCENC =       990.63732633
  Ewald energy   TEWEN  =    112746.20483039
  -Hartree energ DENC   =   -148065.23570496
  -exchange      EXHF   =         0.00000000
  -V(xc)+E(xc)   XCENC  =       577.47655271
  PAW double counting   =     31814.05959759   -30984.71300122
  entropy T*S    EENTRO =        -0.01056082
  eigenvalues    EBANDS =      -972.08980683
  atomic energy  EATOM  =     33771.16187166
  Solvation  Ediel_sol  =         0.00000000
  ---------------------------------------------------
  free energy    TOTEN  =      -122.50889517 eV

  energy without entropy =     -122.49833435  energy(sigma->0) =     -122.50537489


--------------------------------------------------------------------------------------------------------




--------------------------------------- Iteration      1(   4)  ---------------------------------------


     EDDAV:  cpu time      4.0462: real time      4.0692
       DOS:  cpu time      0.0016: real time      0.0016
    --------------------------------------------
      LOOP:  cpu time      4.0478: real time      4.0708

 eigenvalue-minimisations  :  3272
 total energy-change (2. order) :-0.4240721E+01  (-0.4205298E+01)
 number of electron     402.0000000 magnetization 
 augmentation part      402.0000000 magnetization 

 DIPCOR: dipole corrections for dipol
 direction  3 min pos   219,
 dipolmoment           0.000000      0.000000      0.000120 electrons x Angstroem
 Tr[quadrupol]     -4990.945143

 energy correction for charged system         0.000000 eV
 dipol+quadrupol energy correction           -0.000000 eV
 added-field ion interaction          0.002998 eV  (added to PSCEN)


 Free energy of the ion-electron system (eV)
  ---------------------------------------------------
  alpha Z        PSCENC =       990.63732633
  Ewald energy   TEWEN  =    112746.20483039
  -Hartree energ DENC   =   -148065.23570496
  -exchange      EXHF   =         0.00000000
  -V(xc)+E(xc)   XCENC  =       577.47655271
  PAW double counting   =     31814.05959759   -30984.71300122
  entropy T*S    EENTRO =        -0.01107476
  eigenvalues    EBANDS =      -976.33001344
  atomic energy  EATOM  =     33771.16187166
  Solvation  Ediel_sol  =         0.00000000
  ---------------------------------------------------
  free energy    TOTEN  =      -126.74961571 eV

  energy without entropy =     -126.73854095  energy(sigma->0) =     -126.74592413


--------------------------------------------------------------------------------------------------------




--------------------------------------- Iteration      1(   5)  ---------------------------------------


     EDDAV:  cpu time      4.2179: real time      4.2411
       DOS:  cpu time      0.0015: real time      0.0015
    CHARGE:  cpu time      0.1576: real time      0.1583
    MIXING:  cpu time      0.0013: real time      0.0014
    --------------------------------------------
      LOOP:  cpu time      4.3782: real time      4.4022

 eigenvalue-minimisations  :  3456
 total energy-change (2. order) :-0.1461362E+00  (-0.1457604E+00)
 number of electron     401.9999958 magnetization 
 augmentation part      139.9901777 magnetization 

 DIPCOR: dipole corrections for dipol
 direction  3 min pos   219,
 dipolmoment           0.000000      0.000000      0.000120 electrons x Angstroem
 Tr[quadrupol]     -4990.945143

 energy correction for charged system         0.000000 eV
 dipol+quadrupol energy correction           -0.000000 eV
 added-field ion interaction          0.002998 eV  (added to PSCEN)


 Broyden mixing:
  rms(total) = 0.44459E+01    rms(broyden)= 0.44458E+01
  rms(prec ) = 0.45393E+01
  weight for this iteration     100.00

 Free energy of the ion-electron system (eV)
  ---------------------------------------------------
  alpha Z        PSCENC =       990.63732633
  Ewald energy   TEWEN  =    112746.20483039
  -Hartree energ DENC   =   -148065.23570496
  -exchange      EXHF   =         0.00000000
  -V(xc)+E(xc)   XCENC  =       577.47655271
  PAW double counting   =     31814.05959759   -30984.71300122
  entropy T*S    EENTRO =        -0.01113127
  eigenvalues    EBANDS =      -976.47609315
  atomic energy  EATOM  =     33771.16187166
  Solvation  Ediel_sol  =         0.00000000
  ---------------------------------------------------
  free energy    TOTEN  =      -126.89575194 eV

  energy without entropy =     -126.88462067  energy(sigma->0) =     -126.89204151


--------------------------------------------------------------------------------------------------------




--------------------------------------- Iteration      1(   6)  ---------------------------------------


    POTLOK:  cpu time      0.0434: real time      0.0436
    SETDIJ:  cpu time      0.0092: real time      0.0092
    EDDIAG:  cpu time      0.5954: real time      0.5984
  RMM-DIIS:  cpu time      2.3716: real time      2.3846
    ORTHCH:  cpu time      0.0868: real time      0.0872
       DOS:  cpu time      0.0012: real time      0.0012
    CHARGE:  cpu time      0.1554: real time      0.1560
    MIXING:  cpu time      0.0012: real time      0.0012
    --------------------------------------------
      LOOP:  cpu time      3.2642: real time      3.2814

 eigenvalue-minimisations  :  3136
 total energy-change (2. order) : 0.5794380E+01  (-0.3017777E+01)
 number of electron     401.9999962 magnetization 
 augmentation part      144.0014785 magnetization 

 DIPCOR: dipole corrections for dipol
 direction  3 min pos   225,
 dipolmoment           0.000000      0.000000      0.615451 electrons x Angstroem
 Tr[quadrupol]     -4987.463668

 energy correction for charged system         0.000000 eV
 dipol+quadrupol energy correction           -0.022020 eV
 added-field ion interaction         27.840830 eV  (added to PSCEN)


 Broyden mixing:
  rms(total) = 0.37306E+01    rms(broyden)= 0.37299E+01
  rms(prec ) = 0.40199E+01
  weight for this iteration     100.00

 eigenvalues of (default mixing * dielectric matrix)
  average eigenvalue GAMMA=   0.7655
  0.7655

 Free energy of the ion-electron system (eV)
  ---------------------------------------------------
  alpha Z        PSCENC =      1018.45313783
  Ewald energy   TEWEN  =    112746.20483039
  -Hartree energ DENC   =   -147679.10302934
  -exchange      EXHF   =         0.00000000
  -V(xc)+E(xc)   XCENC  =       566.59419111
  PAW double counting   =     33622.36538020   -32832.72179767
  entropy T*S    EENTRO =         0.02729549
  eigenvalues    EBANDS =     -1334.08325195
  atomic energy  EATOM  =     33771.16187166
  Solvation  Ediel_sol  =         0.00000000
  ---------------------------------------------------
  free energy    TOTEN  =      -121.10137228 eV

  energy without entropy =     -121.12866778  energy(sigma->0) =     -121.11047078


--------------------------------------------------------------------------------------------------------




--------------------------------------- Iteration      1(   7)  ---------------------------------------


    POTLOK:  cpu time      0.0434: real time      0.0436
    SETDIJ:  cpu time      0.0094: real time      0.0095
    EDDIAG:  cpu time      0.5879: real time      0.5905
  RMM-DIIS:  cpu time      2.5434: real time      2.5563
    ORTHCH:  cpu time      0.0880: real time      0.0884
       DOS:  cpu time      0.0009: real time      0.0009
    CHARGE:  cpu time      0.1535: real time      0.1541
    MIXING:  cpu time      0.0012: real time      0.0012
    --------------------------------------------
      LOOP:  cpu time      3.4278: real time      3.4444

 eigenvalue-minimisations  :  3357
 total energy-change (2. order) :-0.1356530E+02  (-0.3719539E+01)
 number of electron     401.9999956 magnetization 
 augmentation part      143.9148353 magnetization 

 DIPCOR: dipole corrections for dipol
 direction  3 min pos   218,
 dipolmoment           0.000000      0.000000     -1.538175 electrons x Angstroem
 Tr[quadrupol]     -4988.159015

 energy correction for charged system         0.000000 eV
 dipol+quadrupol energy correction           -0.137545 eV
 added-field ion interaction        -33.114070 eV  (added to PSCEN)


 Broyden mixing:
  rms(total) = 0.32194E+01    rms(broyden)= 0.32187E+01
  rms(prec ) = 0.40567E+01
  weight for this iteration     100.00

 eigenvalues of (default mixing * dielectric matrix)
  average eigenvalue GAMMA=   1.1320
  1.9255  0.3385

 Free energy of the ion-electron system (eV)
  ---------------------------------------------------
  alpha Z        PSCENC =       957.38271367
  Ewald energy   TEWEN  =    112746.20483039
  -Hartree energ DENC   =   -147690.51244638
  -exchange      EXHF   =         0.00000000
  -V(xc)+E(xc)   XCENC  =       562.92198663
  PAW double counting   =     34464.65508479   -33687.62140764
  entropy T*S    EENTRO =         0.00511720
  eigenvalues    EBANDS =     -1258.86441935
  atomic energy  EATOM  =     33771.16187166
  Solvation  Ediel_sol  =         0.00000000
  ---------------------------------------------------
  free energy    TOTEN  =      -134.66666905 eV

  energy without entropy =     -134.67178625  energy(sigma->0) =     -134.66837478


--------------------------------------------------------------------------------------------------------




--------------------------------------- Iteration      1(   8)  ---------------------------------------


    POTLOK:  cpu time      0.0436: real time      0.0438
    SETDIJ:  cpu time      0.0097: real time      0.0097
    EDDIAG:  cpu time      0.5866: real time      0.5892
  RMM-DIIS:  cpu time      2.5772: real time      2.5904
    ORTHCH:  cpu time      0.0850: real time      0.0854
       DOS:  cpu time      0.0010: real time      0.0010
    CHARGE:  cpu time      0.1543: real time      0.1548
    MIXING:  cpu time      0.0012: real time      0.0012
    --------------------------------------------
      LOOP:  cpu time      3.4585: real time      3.4756

 eigenvalue-minimisations  :  3419
 total energy-change (2. order) :-0.1156538E+01  (-0.3377678E+01)
 number of electron     401.9999956 magnetization 
 augmentation part      144.4971299 magnetization 

 DIPCOR: dipole corrections for dipol
 direction  3 min pos   213,
 dipolmoment           0.000000      0.000000      1.691398 electrons x Angstroem
 Tr[quadrupol]     -4991.292311

 energy correction for charged system         0.000000 eV
 dipol+quadrupol energy correction           -0.166313 eV
 added-field ion interaction          7.769673 eV  (added to PSCEN)


 Broyden mixing:
  rms(total) = 0.25971E+01    rms(broyden)= 0.25969E+01
  rms(prec ) = 0.34963E+01
  weight for this iteration     100.00

 eigenvalues of (default mixing * dielectric matrix)
  average eigenvalue GAMMA=   1.0606
  2.5090  0.4177  0.2550

 Free energy of the ion-electron system (eV)
  ---------------------------------------------------
  alpha Z        PSCENC =       998.23768817
  Ewald energy   TEWEN  =    112746.20483039
  -Hartree energ DENC   =   -147649.33214530
  -exchange      EXHF   =         0.00000000
  -V(xc)+E(xc)   XCENC  =       559.46624199
  PAW double counting   =     35695.15106529   -34938.24666297
  entropy T*S    EENTRO =         0.00280292
  eigenvalues    EBANDS =     -1318.46889879
  atomic energy  EATOM  =     33771.16187166
  Solvation  Ediel_sol  =         0.00000000
  ---------------------------------------------------
  free energy    TOTEN  =      -135.82320663 eV

  energy without entropy =     -135.82600955  energy(sigma->0) =     -135.82414094


--------------------------------------------------------------------------------------------------------




--------------------------------------- Iteration      1(   9)  ---------------------------------------


    POTLOK:  cpu time      0.0434: real time      0.0436
    SETDIJ:  cpu time      0.0100: real time      0.0100
    EDDIAG:  cpu time      0.5867: real time      0.5893
  RMM-DIIS:  cpu time      2.4777: real time      2.4901
    ORTHCH:  cpu time      0.0883: real time      0.0887
       DOS:  cpu time      0.0010: real time      0.0010
    CHARGE:  cpu time      0.1541: real time      0.1547
    MIXING:  cpu time      0.0012: real time      0.0012
    --------------------------------------------
      LOOP:  cpu time      3.3624: real time      3.3786

 eigenvalue-minimisations  :  3274
 total energy-change (2. order) : 0.1760235E+02  (-0.1277929E+01)
 number of electron     401.9999957 magnetization 
 augmentation part      146.9601060 magnetization 

 DIPCOR: dipole corrections for dipol
 direction  3 min pos   214,
 dipolmoment           0.000000      0.000000     -0.130884 electrons x Angstroem
 Tr[quadrupol]     -4989.427044

 energy correction for charged system         0.000000 eV
 dipol+quadrupol energy correction           -0.000996 eV
 added-field ion interaction         -1.044522 eV  (added to PSCEN)


 Broyden mixing:
  rms(total) = 0.11866E+01    rms(broyden)= 0.11865E+01
  rms(prec ) = 0.13600E+01
  weight for this iteration     100.00

 eigenvalues of (default mixing * dielectric matrix)
  average eigenvalue GAMMA=   0.9801
  2.3311  0.8636  0.4895  0.2360

 Free energy of the ion-electron system (eV)
  ---------------------------------------------------
  alpha Z        PSCENC =       989.58881061
  Ewald energy   TEWEN  =    112746.20483039
  -Hartree energ DENC   =   -147554.60109514
  -exchange      EXHF   =         0.00000000
  -V(xc)+E(xc)   XCENC  =       557.44409688
  PAW double counting   =     36754.66719746   -36015.53532849
  entropy T*S    EENTRO =        -0.01837026
  eigenvalues    EBANDS =     -1367.13286570
  atomic energy  EATOM  =     33771.16187166
  Solvation  Ediel_sol  =         0.00000000
  ---------------------------------------------------
  free energy    TOTEN  =      -118.22085259 eV

  energy without entropy =     -118.20248232  energy(sigma->0) =     -118.21472916


--------------------------------------------------------------------------------------------------------




--------------------------------------- Iteration      1(  10)  ---------------------------------------


    POTLOK:  cpu time      0.0434: real time      0.0436
    SETDIJ:  cpu time      0.0104: real time      0.0104
    EDDIAG:  cpu time      0.5853: real time      0.5880
  RMM-DIIS:  cpu time      2.4863: real time      2.4997
    ORTHCH:  cpu time      0.0845: real time      0.0848
       DOS:  cpu time      0.0010: real time      0.0010
    CHARGE:  cpu time      0.1529: real time      0.1535
    MIXING:  cpu time      0.0013: real time      0.0013
    --------------------------------------------
      LOOP:  cpu time      3.3652: real time      3.3824

 eigenvalue-minimisations  :  3285
 total energy-change (2. order) : 0.3049799E+01  (-0.5991831E+00)
 number of electron     401.9999957 magnetization 
 augmentation part      146.1746100 magnetization 

 DIPCOR: dipole corrections for dipol
 direction  3 min pos   221,
 dipolmoment           0.000000      0.000000      0.004449 electrons x Angstroem
 Tr[quadrupol]     -4986.253579

 energy correction for charged system         0.000000 eV
 dipol+quadrupol energy correction           -0.000001 eV
 added-field ion interaction          0.140982 eV  (added to PSCEN)


 Broyden mixing:
  rms(total) = 0.40247E+00    rms(broyden)= 0.40202E+00
  rms(prec ) = 0.45137E+00
  weight for this iteration     100.00

 eigenvalues of (default mixing * dielectric matrix)
  average eigenvalue GAMMA=   0.9666
  2.3194  1.2618  0.5070  0.5070  0.2381

 Free energy of the ion-electron system (eV)
  ---------------------------------------------------
  alpha Z        PSCENC =       990.77530948
  Ewald energy   TEWEN  =    112746.20483039
  -Hartree energ DENC   =   -147534.63859334
  -exchange      EXHF   =         0.00000000
  -V(xc)+E(xc)   XCENC  =       560.05941235
  PAW double counting   =     36788.27921440   -36044.12757822
  entropy T*S    EENTRO =        -0.01962601
  eigenvalues    EBANDS =     -1392.86589425
  atomic energy  EATOM  =     33771.16187166
  Solvation  Ediel_sol  =         0.00000000
  ---------------------------------------------------
  free energy    TOTEN  =      -115.17105355 eV

  energy without entropy =     -115.15142754  energy(sigma->0) =     -115.16451155


--------------------------------------------------------------------------------------------------------




--------------------------------------- Iteration      1(  11)  ---------------------------------------


    POTLOK:  cpu time      0.0434: real time      0.0436
    SETDIJ:  cpu time      0.0102: real time      0.0103
    EDDIAG:  cpu time      0.5847: real time      0.5874
  RMM-DIIS:  cpu time      2.4660: real time      2.4785
    ORTHCH:  cpu time      0.0871: real time      0.0875
       DOS:  cpu time      0.0010: real time      0.0010
    CHARGE:  cpu time      0.1541: real time      0.1547
    MIXING:  cpu time      0.0013: real time      0.0013
    --------------------------------------------
      LOOP:  cpu time      3.3478: real time      3.3643

 eigenvalue-minimisations  :  3272
 total energy-change (2. order) :-0.7834417E-01  (-0.1556712E+00)
 number of electron     401.9999959 magnetization 
 augmentation part      145.5473926 magnetization 

 DIPCOR: dipole corrections for dipol
 direction  3 min pos   224,
 dipolmoment           0.000000      0.000000      0.113433 electrons x Angstroem
 Tr[quadrupol]     -4986.429130

 energy correction for charged system         0.000000 eV
 dipol+quadrupol energy correction           -0.000748 eV
 added-field ion interaction          4.747104 eV  (added to PSCEN)


 Broyden mixing:
  rms(total) = 0.60582E+00    rms(broyden)= 0.60526E+00
  rms(prec ) = 0.66259E+00
  weight for this iteration     100.00

 eigenvalues of (default mixing * dielectric matrix)
  average eigenvalue GAMMA=   0.9706
  2.4034  1.0471  0.8428  0.8428  0.4492  0.2386

 Free energy of the ion-electron system (eV)
  ---------------------------------------------------
  alpha Z        PSCENC =       995.38068424
  Ewald energy   TEWEN  =    112746.20483039
  -Hartree energ DENC   =   -147565.93225163
  -exchange      EXHF   =         0.00000000
  -V(xc)+E(xc)   XCENC  =       561.31276259
  PAW double counting   =     36824.28041837   -36077.62433414
  entropy T*S    EENTRO =        -0.01601314
  eigenvalues    EBANDS =     -1370.01736607
  atomic energy  EATOM  =     33771.16187166
  Solvation  Ediel_sol  =         0.00000000
  ---------------------------------------------------
  free energy    TOTEN  =      -115.24939772 eV

  energy without entropy =     -115.23338459  energy(sigma->0) =     -115.24406001


--------------------------------------------------------------------------------------------------------




--------------------------------------- Iteration      1(  12)  ---------------------------------------


    POTLOK:  cpu time      0.0433: real time      0.0435
    SETDIJ:  cpu time      0.0106: real time      0.0106
    EDDIAG:  cpu time      0.5847: real time      0.5873
  RMM-DIIS:  cpu time      2.4550: real time      2.4678
    ORTHCH:  cpu time      0.0878: real time      0.0882
       DOS:  cpu time      0.0010: real time      0.0010
    CHARGE:  cpu time      0.1537: real time      0.1543
    MIXING:  cpu time      0.0014: real time      0.0014
    --------------------------------------------
      LOOP:  cpu time      3.3373: real time      3.3540

 eigenvalue-minimisations  :  3242
 total energy-change (2. order) : 0.1577495E+00  (-0.8390371E-01)
 number of electron     401.9999958 magnetization 
 augmentation part      145.8419387 magnetization 

 DIPCOR: dipole corrections for dipol
 direction  3 min pos   224,
 dipolmoment           0.000000      0.000000      0.120074 electrons x Angstroem
 Tr[quadrupol]     -4987.599745

 energy correction for charged system         0.000000 eV
 dipol+quadrupol energy correction           -0.000838 eV
 added-field ion interaction          5.025044 eV  (added to PSCEN)


 Broyden mixing:
  rms(total) = 0.22480E+00    rms(broyden)= 0.22394E+00
  rms(prec ) = 0.27186E+00
  weight for this iteration     100.00

 eigenvalues of (default mixing * dielectric matrix)
  average eigenvalue GAMMA=   0.9288
  2.3396  1.1438  1.1438  0.6082  0.6082  0.2386  0.4196

 Free energy of the ion-electron system (eV)
  ---------------------------------------------------
  alpha Z        PSCENC =       995.65853436
  Ewald energy   TEWEN  =    112746.20483039
  -Hartree energ DENC   =   -147579.81252138
  -exchange      EXHF   =         0.00000000
  -V(xc)+E(xc)   XCENC  =       560.54329391
  PAW double counting   =     36802.09645681   -36056.40848638
  entropy T*S    EENTRO =        -0.00673779
  eigenvalues    EBANDS =     -1354.52888981
  atomic energy  EATOM  =     33771.16187166
  Solvation  Ediel_sol  =         0.00000000
  ---------------------------------------------------
  free energy    TOTEN  =      -115.09164824 eV

  energy without entropy =     -115.08491045  energy(sigma->0) =     -115.08940231


--------------------------------------------------------------------------------------------------------




--------------------------------------- Iteration      1(  13)  ---------------------------------------


    POTLOK:  cpu time      0.0434: real time      0.0435
    SETDIJ:  cpu time      0.0110: real time      0.0110
    EDDIAG:  cpu time      0.5858: real time      0.5885
  RMM-DIIS:  cpu time      2.3813: real time      2.3943
    ORTHCH:  cpu time      0.0872: real time      0.0876
       DOS:  cpu time      0.0010: real time      0.0010
    CHARGE:  cpu time      0.1540: real time      0.1546
    MIXING:  cpu time      0.0014: real time      0.0014
    --------------------------------------------
      LOOP:  cpu time      3.2650: real time      3.2818

 eigenvalue-minimisations  :  3162
 total energy-change (2. order) : 0.7578042E-01  (-0.6120707E-02)
 number of electron     401.9999958 magnetization 
 augmentation part      145.7933093 magnetization 

 DIPCOR: dipole corrections for dipol
 direction  3 min pos   224,
 dipolmoment           0.000000      0.000000      0.112984 electrons x Angstroem
 Tr[quadrupol]     -4987.316592

 energy correction for charged system         0.000000 eV
 dipol+quadrupol energy correction           -0.000742 eV
 added-field ion interaction          4.728326 eV  (added to PSCEN)


 Broyden mixing:
  rms(total) = 0.18431E+00    rms(broyden)= 0.18428E+00
  rms(prec ) = 0.22135E+00
  weight for this iteration     100.00

 eigenvalues of (default mixing * dielectric matrix)
  average eigenvalue GAMMA=   1.0132
  2.2186  1.6082  1.6082  0.2386  0.7323  0.4468  0.6267  0.6267

 Free energy of the ion-electron system (eV)
  ---------------------------------------------------
  alpha Z        PSCENC =       995.36191209
  Ewald energy   TEWEN  =    112746.20483039
  -Hartree energ DENC   =   -147576.26179607
  -exchange      EXHF   =         0.00000000
  -V(xc)+E(xc)   XCENC  =       560.69245230
  PAW double counting   =     36784.00877016   -36037.54502297
  entropy T*S    EENTRO =        -0.01052934
  eigenvalues    EBANDS =     -1358.62835605
  atomic energy  EATOM  =     33771.16187166
  Solvation  Ediel_sol  =         0.00000000
  ---------------------------------------------------
  free energy    TOTEN  =      -115.01586782 eV

  energy without entropy =     -115.00533848  energy(sigma->0) =     -115.01235804


--------------------------------------------------------------------------------------------------------




--------------------------------------- Iteration      1(  14)  ---------------------------------------


    POTLOK:  cpu time      0.0435: real time      0.0437
    SETDIJ:  cpu time      0.0112: real time      0.0112
    EDDIAG:  cpu time      0.5850: real time      0.5876
  RMM-DIIS:  cpu time      2.4360: real time      2.4486
    ORTHCH:  cpu time      0.0854: real time      0.0858
       DOS:  cpu time      0.0009: real time      0.0009
    CHARGE:  cpu time      0.1533: real time      0.1539
    MIXING:  cpu time      0.0014: real time      0.0014
    --------------------------------------------
      LOOP:  cpu time      3.3168: real time      3.3332

 eigenvalue-minimisations  :  3232
 total energy-change (2. order) : 0.7260518E-01  (-0.3514718E-02)
 number of electron     401.9999958 magnetization 
 augmentation part      145.7163472 magnetization 

 DIPCOR: dipole corrections for dipol
 direction  3 min pos   225,
 dipolmoment           0.000000      0.000000      0.117719 electrons x Angstroem
 Tr[quadrupol]     -4987.054275

 energy correction for charged system         0.000000 eV
 dipol+quadrupol energy correction           -0.000806 eV
 added-field ion interaction          5.325199 eV  (added to PSCEN)


 Broyden mixing:
  rms(total) = 0.78611E-01    rms(broyden)= 0.78537E-01
  rms(prec ) = 0.92469E-01
  weight for this iteration     100.00

 eigenvalues of (default mixing * dielectric matrix)
  average eigenvalue GAMMA=   1.0602
  2.2718  2.2718  1.3619  0.2386  0.6669  0.6669  0.4426  0.8611  0.7601

 Free energy of the ion-electron system (eV)
  ---------------------------------------------------
  alpha Z        PSCENC =       995.95872194
  Ewald energy   TEWEN  =    112746.20483039
  -Hartree energ DENC   =   -147574.11153153
  -exchange      EXHF   =         0.00000000
  -V(xc)+E(xc)   XCENC  =       560.91103030
  PAW double counting   =     36767.74118456   -36020.29074909
  entropy T*S    EENTRO =        -0.02289300
  eigenvalues    EBANDS =     -1362.49572787
  atomic energy  EATOM  =     33771.16187166
  Solvation  Ediel_sol  =         0.00000000
  ---------------------------------------------------
  free energy    TOTEN  =      -114.94326264 eV

  energy without entropy =     -114.92036964  energy(sigma->0) =     -114.93563164


--------------------------------------------------------------------------------------------------------




--------------------------------------- Iteration      1(  15)  ---------------------------------------


    POTLOK:  cpu time      0.0436: real time      0.0438
    SETDIJ:  cpu time      0.0111: real time      0.0112
    EDDIAG:  cpu time      0.5829: real time      0.5854
  RMM-DIIS:  cpu time      2.5347: real time      2.5487
    ORTHCH:  cpu time      0.0876: real time      0.0879
       DOS:  cpu time      0.0010: real time      0.0010
    CHARGE:  cpu time      0.1535: real time      0.1541
    MIXING:  cpu time      0.0014: real time      0.0014
    --------------------------------------------
      LOOP:  cpu time      3.4159: real time      3.4335

 eigenvalue-minimisations  :  3347
 total energy-change (2. order) : 0.8218940E-02  (-0.1910309E-02)
 number of electron     401.9999958 magnetization 
 augmentation part      145.6599728 magnetization 

 DIPCOR: dipole corrections for dipol
 direction  3 min pos   226,
 dipolmoment           0.000000      0.000000      0.127123 electrons x Angstroem
 Tr[quadrupol]     -4987.017193

 energy correction for charged system         0.000000 eV
 dipol+quadrupol energy correction           -0.000939 eV
 added-field ion interaction          6.181167 eV  (added to PSCEN)


 Broyden mixing:
  rms(total) = 0.19299E-01    rms(broyden)= 0.18962E-01
  rms(prec ) = 0.20502E-01
  weight for this iteration     100.00

 eigenvalues of (default mixing * dielectric matrix)
  average eigenvalue GAMMA=   1.1203
  2.5066  1.8935  1.8935  1.0698  1.0698  0.2386  0.6669  0.6669  0.4432  0.7538

 Free energy of the ion-electron system (eV)
  ---------------------------------------------------
  alpha Z        PSCENC =       996.81455549
  Ewald energy   TEWEN  =    112746.20483039
  -Hartree energ DENC   =   -147575.07192250
  -exchange      EXHF   =         0.00000000
  -V(xc)+E(xc)   XCENC  =       561.03098656
  PAW double counting   =     36771.81215661   -36023.97415610
  entropy T*S    EENTRO =        -0.02804525
  eigenvalues    EBANDS =     -1362.88532055
  atomic energy  EATOM  =     33771.16187166
  Solvation  Ediel_sol  =         0.00000000
  ---------------------------------------------------
  free energy    TOTEN  =      -114.93504370 eV

  energy without entropy =     -114.90699845  energy(sigma->0) =     -114.92569528


--------------------------------------------------------------------------------------------------------




--------------------------------------- Iteration      1(  16)  ---------------------------------------


    POTLOK:  cpu time      0.0434: real time      0.0436
    SETDIJ:  cpu time      0.0112: real time      0.0113
    EDDIAG:  cpu time      0.5854: real time      0.5880
  RMM-DIIS:  cpu time      2.4573: real time      2.4698
    ORTHCH:  cpu time      0.0856: real time      0.0860
       DOS:  cpu time      0.0010: real time      0.0010
    CHARGE:  cpu time      0.1530: real time      0.1536
    MIXING:  cpu time      0.0015: real time      0.0015
    --------------------------------------------
      LOOP:  cpu time      3.3384: real time      3.3547

 eigenvalue-minimisations  :  3261
 total energy-change (2. order) :-0.2380340E-02  (-0.2397878E-03)
 number of electron     401.9999958 magnetization 
 augmentation part      145.6657811 magnetization 

 DIPCOR: dipole corrections for dipol
 direction  3 min pos   227,
 dipolmoment           0.000000      0.000000      0.122531 electrons x Angstroem
 Tr[quadrupol]     -4987.072973

 energy correction for charged system         0.000000 eV
 dipol+quadrupol energy correction           -0.000873 eV
 added-field ion interaction          6.372887 eV  (added to PSCEN)


 Broyden mixing:
  rms(total) = 0.23513E-01    rms(broyden)= 0.23513E-01
  rms(prec ) = 0.27365E-01
  weight for this iteration     100.00

 eigenvalues of (default mixing * dielectric matrix)
  average eigenvalue GAMMA=   1.1881
  2.8751  2.1974  2.1974  1.3076  0.2386  0.8790  0.8790  0.6703  0.6703  0.4430
  0.7115

 Free energy of the ion-electron system (eV)
  ---------------------------------------------------
  alpha Z        PSCENC =       997.00634228
  Ewald energy   TEWEN  =    112746.20483039
  -Hartree energ DENC   =   -147575.73512988
  -exchange      EXHF   =         0.00000000
  -V(xc)+E(xc)   XCENC  =       561.01708197
  PAW double counting   =     36777.91646635   -36030.05399235
  entropy T*S    EENTRO =        -0.02669223
  eigenvalues    EBANDS =     -1362.42820222
  atomic energy  EATOM  =     33771.16187166
  Solvation  Ediel_sol  =         0.00000000
  ---------------------------------------------------
  free energy    TOTEN  =      -114.93742404 eV

  energy without entropy =     -114.91073181  energy(sigma->0) =     -114.92852663


--------------------------------------------------------------------------------------------------------




--------------------------------------- Iteration      1(  17)  ---------------------------------------


    POTLOK:  cpu time      0.0434: real time      0.0452
    SETDIJ:  cpu time      0.0110: real time      0.0110
    EDDIAG:  cpu time      0.5843: real time      0.6080
  RMM-DIIS:  cpu time      2.4587: real time      2.4728
    ORTHCH:  cpu time      0.0870: real time      0.0874
       DOS:  cpu time      0.0010: real time      0.0010
    CHARGE:  cpu time      0.1530: real time      0.1536
    MIXING:  cpu time      0.0015: real time      0.0015
    --------------------------------------------
      LOOP:  cpu time      3.3400: real time      3.3805

 eigenvalue-minimisations  :  3271
 total energy-change (2. order) :-0.3585007E-03  (-0.2140191E-03)
 number of electron     401.9999958 magnetization 
 augmentation part      145.6510286 magnetization 

 DIPCOR: dipole corrections for dipol
 direction  3 min pos   228,
 dipolmoment           0.000000      0.000000      0.124993 electrons x Angstroem
 Tr[quadrupol]     -4987.076055

 energy correction for charged system         0.000000 eV
 dipol+quadrupol energy correction           -0.000908 eV
 added-field ion interaction          6.924242 eV  (added to PSCEN)


 Broyden mixing:
  rms(total) = 0.62208E-02    rms(broyden)= 0.61309E-02
  rms(prec ) = 0.67138E-02
  weight for this iteration     100.00

 eigenvalues of (default mixing * dielectric matrix)
  average eigenvalue GAMMA=   1.1310
  2.7715  2.1709  2.1709  1.2771  0.2386  0.9368  0.9368  0.6694  0.6694  0.7527
  0.4429  0.5353

 Free energy of the ion-electron system (eV)
  ---------------------------------------------------
  alpha Z        PSCENC =       997.55766220
  Ewald energy   TEWEN  =    112746.20483039
  -Hartree energ DENC   =   -147575.66840671
  -exchange      EXHF   =         0.00000000
  -V(xc)+E(xc)   XCENC  =       561.04854109
  PAW double counting   =     36782.11100038   -36034.15966241
  entropy T*S    EENTRO =        -0.02821812
  eigenvalues    EBANDS =     -1363.16540101
  atomic energy  EATOM  =     33771.16187166
  Solvation  Ediel_sol  =         0.00000000
  ---------------------------------------------------
  free energy    TOTEN  =      -114.93778254 eV

  energy without entropy =     -114.90956442  energy(sigma->0) =     -114.92837650


--------------------------------------------------------------------------------------------------------




--------------------------------------- Iteration      1(  18)  ---------------------------------------


    POTLOK:  cpu time      0.0437: real time      0.0439
    SETDIJ:  cpu time      0.0113: real time      0.0113
    EDDIAG:  cpu time      0.5831: real time      0.5857
  RMM-DIIS:  cpu time      1.7752: real time      1.7843
    ORTHCH:  cpu time      0.0875: real time      0.0879
       DOS:  cpu time      0.0010: real time      0.0010
    CHARGE:  cpu time      0.1534: real time      0.1540
    MIXING:  cpu time      0.0015: real time      0.0015
    --------------------------------------------
      LOOP:  cpu time      2.6567: real time      2.6696

 eigenvalue-minimisations  :  2216
 total energy-change (2. order) :-0.1918981E-03  (-0.2897012E-04)
 number of electron     401.9999958 magnetization 
 augmentation part      145.6522952 magnetization 

 DIPCOR: dipole corrections for dipol
 direction  3 min pos   229,
 dipolmoment           0.000000      0.000000      0.126958 electrons x Angstroem
 Tr[quadrupol]     -4987.093680

 energy correction for charged system         0.000000 eV
 dipol+quadrupol energy correction           -0.000937 eV
 added-field ion interaction          7.463114 eV  (added to PSCEN)


 Broyden mixing:
  rms(total) = 0.46308E-02    rms(broyden)= 0.46265E-02
  rms(prec ) = 0.54595E-02
  weight for this iteration     100.00

 eigenvalues of (default mixing * dielectric matrix)
  average eigenvalue GAMMA=   1.2027
  3.2437  2.1007  2.1007  1.6705  1.1373  1.1373  0.2386  0.6698  0.6698  0.4430
  0.7768  0.7768  0.6696

 Free energy of the ion-electron system (eV)
  ---------------------------------------------------
  alpha Z        PSCENC =       998.09650476
  Ewald energy   TEWEN  =    112746.20483039
  -Hartree energ DENC   =   -147575.43306660
  -exchange      EXHF   =         0.00000000
  -V(xc)+E(xc)   XCENC  =       561.04530331
  PAW double counting   =     36781.51709079   -36033.56904954
  entropy T*S    EENTRO =        -0.02819888
  eigenvalues    EBANDS =     -1363.93326033
  atomic energy  EATOM  =     33771.16187166
  Solvation  Ediel_sol  =         0.00000000
  ---------------------------------------------------
  free energy    TOTEN  =      -114.93797444 eV

  energy without entropy =     -114.90977556  energy(sigma->0) =     -114.92857481
[...]
    151      -2.1118      2.00000
    152      -2.0661      2.00000
    153      -2.0393      2.00000
    154      -2.0127      2.00000
    155      -1.9933      2.00000
    156      -1.9630      2.00000
    157      -1.9340      2.00000
    158      -1.8943      2.00000
    159      -1.8810      2.00000
    160      -1.8354      2.00000
    161      -1.8153      2.00000
    162      -1.7544      2.00000
    163      -1.7328      2.00000
    164      -1.6985      2.00000
    165      -1.6892      2.00000
    166      -1.6664      2.00000
    167      -1.6390      2.00000
    168      -1.6135      2.00000
    169      -1.5945      2.00000
    170      -1.5849      2.00000
    171      -1.5729      2.00000
    172      -1.5612      2.00000
    173      -1.5533      2.00000
    174      -1.5331      2.00000
    175      -1.5306      2.00000
    176      -1.5218      2.00000
    177      -1.4987      2.00000
    178      -1.4848      2.00000
    179      -1.4208      2.00000
    180      -1.4043      2.00000
    181      -1.3942      2.00000
    182      -1.3903      2.00000
    183      -1.3611      2.00000
    184      -1.3430      2.00000
    185      -1.3305      2.00000
    186      -1.2738      2.00000
    187      -1.2495      2.00000
    188      -1.2146      2.00000
    189      -1.0822      2.00000
    190      -0.9689      2.00000
    191      -0.9006      2.00000
    192      -0.8284      2.00000
    193      -0.6913      2.00000
    194      -0.5708      2.00000
    195      -0.4022      2.00000
    196      -0.2052      2.00000
    197       0.0535      2.00000
    198       0.3220      2.06613
    199       0.3800      1.77177
    200       0.4548      0.63916
    201       0.4884      0.20262
    202       0.7411     -0.00012
    203       0.8018     -0.00000
    204       0.9498     -0.00000
    205       0.9965     -0.00000
    206       1.0895     -0.00000
    207       1.2294     -0.00000
    208       1.4535     -0.00000
    209       1.9333     -0.00000
    210       2.1104     -0.00000
    211       2.1599     -0.00000
    212       2.2117     -0.00000
    213       2.3593     -0.00000
    214       2.4337      0.00000
    215       2.6908      0.00000
    216       2.7788      0.00000
    217       2.8287      0.00000
    218       2.8799      0.00000
    219       3.0362      0.00000
    220       3.3058      0.00000
    221       3.4373      0.00000
    222       3.6823      0.00000
    223       3.9818      0.00000
    224       4.0473      0.00000
    225       4.1362      0.00000
    226       4.3349      0.00000
    227       4.4820      0.00000
    228       4.6983      0.00000
    229       4.8188      0.00000
    230       5.3281      0.00000
    231       5.4226      0.00000
    232       5.4628      0.00000
    233       5.7043      0.00000
    234       5.7592      0.00000
    235       5.8702      0.00000
    236       5.8858      0.00000
    237       5.9260      0.00000
    238       6.0029      0.00000
    239       6.0522      0.00000
    240       6.1151      0.00000
    241       6.6154      0.00000
    242       6.6920      0.00000


--------------------------------------------------------------------------------------------------------


 soft charge-density along one line, spin component           1
         0         1         2         3         4         5         6         7         8         9
 total charge-density along one line

 pseudopotential strength for first ion, spin component:           1
 -7.439   0.000  -0.001  -0.004  -0.000  -7.599   0.000  -0.001
  0.000  -7.407   0.000   0.001  -0.004   0.000  -7.568   0.000
 -0.001   0.000  -7.404   0.000  -0.001  -0.001   0.000  -7.565
 -0.004   0.001   0.000  -7.406   0.000  -0.004   0.001   0.000
 -0.000  -0.004  -0.001   0.000  -7.439  -0.000  -0.004  -0.001
 -7.599   0.000  -0.001  -0.004  -0.000  -7.743   0.000  -0.001
  0.000  -7.568   0.000   0.001  -0.004   0.000  -7.713   0.000
 -0.001   0.000  -7.565   0.000  -0.001  -0.001   0.000  -7.710
 -0.004   0.001   0.000  -7.567   0.000  -0.004   0.001   0.000
 -0.000  -0.004  -0.001   0.000  -7.599  -0.000  -0.004  -0.001
 -0.000  -0.000  -0.013  -0.000  -0.000  -0.000  -0.000  -0.013
 -0.001  -0.000  -0.020  -0.000  -0.000  -0.001  -0.000  -0.020
  0.000  -0.004  -0.000  -0.000   0.000   0.000  -0.003  -0.000
 -0.000   0.000  -0.006   0.000  -0.000  -0.000   0.000  -0.006
  0.000  -0.000  -0.000  -0.004   0.000   0.000  -0.000  -0.000
  0.000  -0.003  -0.000   0.000   0.000   0.000  -0.003  -0.000
  0.000   0.000  -0.006   0.000   0.000   0.000   0.000  -0.006
  0.000   0.000  -0.000  -0.003   0.000   0.000   0.000  -0.000
 total augmentation occupancy for first ion, spin component:           1
  4.077   0.002  -0.010   0.031  -0.007  -2.057  -0.002   0.007  -0.083   0.005   0.007  -0.001  -0.002   0.004  -0.032   0.000
  0.002   3.653   0.009   0.005   0.028  -0.002  -1.462  -0.006  -0.004  -0.080   0.001  -0.001  -0.144  -0.002  -0.003   0.004
 -0.010   0.009   4.178   0.014  -0.006   0.007  -0.006  -2.019  -0.010   0.004   0.579  -0.056  -0.002  -0.239  -0.003  -0.000
  0.031   0.005   0.014   3.661   0.003  -0.082  -0.004  -0.010  -1.467  -0.002   0.001  -0.001  -0.003  -0.003  -0.147   0.000
 -0.007   0.028  -0.006   0.003   4.086   0.005  -0.081   0.004  -0.002  -2.064   0.004  -0.001  -0.030   0.002  -0.002   0.001
 -2.057  -0.002   0.007  -0.082   0.005   1.952   0.001  -0.005   0.121  -0.004  -0.004  -0.000   0.001  -0.003   0.031  -0.000
 -0.002  -1.462  -0.006  -0.004  -0.081   0.001   1.230   0.004   0.002   0.119  -0.000   0.000   0.139   0.001   0.002  -0.006
  0.007  -0.006  -2.019  -0.010   0.004  -0.005   0.004   1.808   0.007  -0.003  -0.525   0.075   0.001   0.246   0.002  -0.000
 -0.083  -0.004  -0.010  -1.467  -0.002   0.121   0.002   0.007   1.234   0.001  -0.001   0.000   0.002   0.002   0.141  -0.000
  0.005  -0.080   0.004  -0.002  -2.064  -0.004   0.119  -0.003   0.001   1.957  -0.003  -0.000   0.029  -0.002   0.001  -0.001
  0.007   0.001   0.579   0.001   0.004  -0.004  -0.000  -0.525  -0.001  -0.003   2.208  -0.485  -0.000   0.133  -0.001   0.000
 -0.001  -0.001  -0.056  -0.001  -0.001  -0.000   0.000   0.075   0.000  -0.000  -0.485   0.155  -0.000  -0.059  -0.000  -0.000
 -0.002  -0.144  -0.002  -0.003  -0.030   0.001   0.139   0.001   0.002   0.029  -0.000  -0.000   0.149   0.000   0.001  -0.005
  0.004  -0.002  -0.239  -0.003   0.002  -0.003   0.001   0.246   0.002  -0.002   0.133  -0.059   0.000   0.087   0.000  -0.000
 -0.032  -0.003  -0.003  -0.147  -0.002   0.031   0.002   0.002   0.141   0.001  -0.001  -0.000   0.001   0.000   0.150  -0.000
  0.000   0.004  -0.000   0.000   0.001  -0.000  -0.006  -0.000  -0.000  -0.001   0.000  -0.000  -0.005  -0.000  -0.000   0.000
 -0.000   0.000   0.001   0.000  -0.000   0.000  -0.000  -0.007  -0.000   0.000  -0.008   0.003  -0.000  -0.003  -0.000   0.000
  0.001   0.000  -0.000   0.004   0.000  -0.001  -0.000  -0.000  -0.006  -0.000   0.000  -0.000  -0.000  -0.000  -0.005  -0.000


------------------------ aborting loop because EDIFF is reached ----------------------------------------


    CHARGE:  cpu time      0.1532: real time      0.1539
    FORLOC:  cpu time      0.0062: real time      0.0062
    FORNL :  cpu time      0.6957: real time      0.6987
    STRESS:  cpu time      2.0817: real time      2.0904
    FORCOR:  cpu time      0.0490: real time      0.0492
    FORHAR:  cpu time      0.0143: real time      0.0143
    MIXING:  cpu time      0.0017: real time      0.0017
    OFIELD:  cpu time      0.0000: real time      0.0000

  FORCE on cell =-STRESS in cart. coord.  units (eV):
  Direction    XX          YY          ZZ          XY          YZ          ZX
  --------------------------------------------------------------------------------------
  Alpha Z   990.63433   990.63433   990.63433
  Ewald  135844.53690135897.12584************   -38.59235    -3.82390     2.47061
  Hartree144480.90833144504.74809************   -18.04955    -3.12426    -2.15783
  E(xc)   -1807.45288 -1807.32128 -1814.67862    -0.09483    -0.01631    -0.00461
  Local  ************************293145.05182    53.97300     6.98154     0.49930
  n-local   -76.22754   -75.71668   -54.98838    -0.58421     0.17281     0.29315
  augment  2440.71082  2439.86922  2457.03119     0.63158    -0.00087    -0.19568
  Kinetic  5629.45655  5626.82373  5684.89705     2.00790     0.05124    -0.30525
  Fock        0.00000     0.00000     0.00000     0.00000     0.00000     0.00000
  -------------------------------------------------------------------------------------
  Total     -16.94776   -16.10280     0.27923    -0.70846     0.24025     0.59968
  in kB     -17.44697   -16.57712     0.28746    -0.72933     0.24732     0.61734
  external pressure =      -11.25 kB  Pullay stress =        0.00 kB


 VOLUME and BASIS-vectors are now :
 -----------------------------------------------------------------------------
  energy-cutoff  :      400.00
  volume of cell :     1556.33
      direct lattice vectors                 reciprocal lattice vectors
     8.803479426  0.000000000  0.000000000     0.113591451 -0.065582055  0.000000000
     4.401739713  7.624036824  0.000000000     0.000000000  0.131164109  0.000000000
     0.000000000  0.000000000 23.188010851     0.000000000  0.000000000  0.043125735

  length of vectors
     8.803479426  8.803479426 23.188010851     0.131164109  0.131164109  0.043125735


 FORCES acting on ions
    electron-ion (+dipol)            ewald-force                    non-local-force                 convergence-correction
 -----------------------------------------------------------------------------------------------
   -.464E+00 -.286E+00 0.259E+04   0.395E+00 0.245E+00 -.259E+04   0.524E-01 0.306E-01 -.363E+00   0.129E-02 0.824E-03 0.160E-01
   0.117E+00 -.645E+00 0.259E+04   -.124E+00 0.711E+00 -.259E+04   0.819E-02 -.481E-01 -.316E+00   -.403E-03 0.273E-03 0.163E-01
   0.344E+00 -.328E+00 0.260E+04   -.270E+00 0.283E+00 -.259E+04   -.506E-01 0.333E-01 -.356E+00   -.833E-03 0.480E-03 0.167E-01
   -.487E+00 0.403E+00 0.259E+04   0.540E+00 -.444E+00 -.259E+04   -.366E-01 0.325E-01 -.317E+00   0.185E-04 -.421E-03 0.163E-01
   0.493E+00 0.270E+00 0.259E+04   -.556E+00 -.310E+00 -.259E+04   0.484E-01 0.301E-01 -.356E+00   0.231E-03 0.206E-03 0.156E-01
   -.825E-02 0.396E+00 0.260E+04   0.148E-01 -.451E+00 -.260E+04   0.108E-02 0.403E-01 -.316E+00   -.278E-03 0.394E-03 0.172E-01
   -.954E-01 0.483E+00 0.260E+04   0.955E-01 -.394E+00 -.259E+04   0.215E-02 -.645E-01 -.364E+00   -.567E-04 -.106E-02 0.166E-01
   0.347E+00 -.186E+00 0.260E+04   -.392E+00 0.217E+00 -.260E+04   0.359E-01 -.183E-01 -.314E+00   0.222E-03 -.486E-03 0.172E-01
   -.238E+00 -.114E+00 0.260E+04   0.293E+00 0.143E+00 -.260E+04   -.447E-01 -.239E-01 -.323E+00   -.146E-03 -.118E-03 0.178E-01
   -.317E+01 -.219E+01 0.898E+03   0.311E+01 0.215E+01 -.898E+03   0.701E-01 0.555E-01 -.133E+00   -.796E-04 -.879E-05 0.553E-01
   0.450E+01 -.344E+01 0.900E+03   -.444E+01 0.339E+01 -.900E+03   -.737E-01 0.558E-01 -.149E+00   -.235E-03 0.854E-04 0.554E-01
   -.522E+00 -.368E+01 0.901E+03   0.515E+00 0.375E+01 -.901E+03   -.439E-02 0.614E-02 -.399E+00   0.296E-03 0.462E-03 0.554E-01
   -.412E+00 0.531E+01 0.900E+03   0.415E+00 -.525E+01 -.899E+03   -.332E-02 -.743E-01 -.137E+00   -.625E-04 -.271E-03 0.554E-01
   0.526E+01 0.294E+01 0.905E+03   -.524E+01 -.293E+01 -.905E+03   -.555E-01 -.236E-01 -.430E+00   0.487E-03 0.232E-03 0.558E-01
   -.404E+01 0.304E+01 0.906E+03   0.405E+01 -.304E+01 -.905E+03   -.450E-02 -.107E-01 -.426E+00   -.391E-03 0.282E-03 0.552E-01
   -.316E+01 0.128E+01 0.901E+03   0.322E+01 -.132E+01 -.901E+03   -.458E-02 0.424E-02 -.406E+00   0.510E-03 0.596E-04 0.554E-01
   0.702E+00 -.504E+01 0.906E+03   -.694E+00 0.505E+01 -.906E+03   -.169E-01 0.160E-01 -.432E+00   0.102E-03 -.487E-03 0.553E-01
   0.267E+01 0.158E+01 0.902E+03   -.273E+01 -.161E+01 -.902E+03   0.327E-02 0.489E-02 -.464E+00   -.627E-03 -.343E-03 0.554E-01
   0.179E+01 0.545E+01 -.812E+03   -.143E+01 -.556E+01 0.812E+03   -.356E+00 0.102E+00 0.110E+00   -.283E-02 0.137E-02 0.538E-01
   0.246E+01 0.107E+01 -.851E+03   -.245E+01 -.105E+01 0.850E+03   -.123E-01 -.276E-01 0.712E+00   0.574E-03 0.230E-03 0.500E-01
   -.212E+01 0.990E+00 -.811E+03   0.175E+01 -.107E+01 0.811E+03   0.348E+00 0.947E-01 0.233E+00   0.225E-02 0.150E-02 0.546E-01
   -.412E+01 -.560E+01 -.802E+03   0.439E+01 0.522E+01 0.801E+03   -.280E+00 0.384E+00 0.614E-01   -.234E-02 0.192E-02 0.543E-01
   -.264E+00 -.231E+01 -.811E+03   -.261E-02 0.203E+01 0.811E+03   0.268E+00 0.259E+00 0.228E+00   0.251E-02 0.117E-02 0.546E-01
   0.260E+01 0.148E+01 -.772E+03   -.266E+01 -.152E+01 0.771E+03   0.554E-01 0.325E-01 0.855E+00   -.223E-03 -.652E-04 0.573E-01
   0.572E-01 -.827E-01 -.778E+03   -.816E-01 0.651E-01 0.778E+03   0.198E-01 0.142E-01 0.735E+00   -.288E-03 -.104E-03 0.573E-01
   0.590E+01 -.830E+00 -.810E+03   -.582E+01 0.121E+01 0.810E+03   -.820E-01 -.373E+00 0.103E+00   -.879E-04 -.312E-02 0.539E-01
   -.744E+01 -.372E+00 -.800E+03   0.724E+01 0.798E+00 0.800E+03   0.198E+00 -.439E+00 0.522E-01   0.395E-03 -.292E-02 0.543E-01
   0.830E+01 0.501E+01 -.249E+04   -.933E+01 -.560E+01 0.249E+04   0.101E+01 0.576E+00 0.101E+01   -.570E-02 -.329E-02 0.180E-01
   0.193E+01 0.844E+02 -.248E+04   -.178E+01 -.858E+02 0.248E+04   -.200E+00 0.136E+01 -.234E+00   0.286E-03 -.601E-02 0.117E-01
   -.150E+02 0.837E+01 -.251E+04   0.157E+02 -.853E+01 0.251E+04   -.669E+00 0.159E+00 0.554E+00   0.577E-02 -.299E-02 0.171E-01
   0.740E+02 -.406E+02 -.249E+04   -.752E+02 0.415E+02 0.249E+04   0.109E+01 -.855E+00 -.257E+00   -.510E-02 0.324E-02 0.114E-01
   -.734E+02 -.420E+02 -.250E+04   0.751E+02 0.430E+02 0.250E+04   -.166E+01 -.977E+00 0.523E+00   0.576E-02 0.326E-02 0.120E-01
   0.101E+01 0.933E+01 -.251E+04   -.122E+01 -.938E+01 0.251E+04   0.186E+00 0.467E-01 0.289E+00   -.131E-02 0.265E-02 0.165E-01
   -.286E+00 -.175E+02 -.251E+04   0.464E+00 0.181E+02 0.251E+04   -.193E+00 -.661E+00 0.554E+00   0.282E-03 0.657E-02 0.171E-01
   0.813E+01 -.420E+01 -.251E+04   -.830E+01 0.403E+01 0.251E+04   0.153E+00 0.138E+00 0.295E+00   0.166E-02 -.240E-02 0.165E-01
   -.847E+01 -.529E+01 -.249E+04   0.831E+01 0.518E+01 0.249E+04   0.140E+00 0.973E-01 0.259E+00   -.186E-02 -.998E-03 0.171E-01
   0.349E+01 0.302E+01 -.170E+04   -.284E+01 -.276E+01 0.172E+04   -.338E+00 -.822E-01 -.228E+02   0.380E-03 0.116E-03 -.185E-01
 -----------------------------------------------------------------------------------------------
   0.400E+00 0.962E-01 0.214E+02   -.564E-13 0.551E-13 -.819E-11   -.396E+00 -.104E+00 -.227E+02   0.168E-03 0.217E-03 0.126E+01


 POSITION                                       TOTAL-FORCE (eV/Angst)
 -----------------------------------------------------------------------------------
      0.00000      0.00000      0.00000        -0.015938     -0.009700     -0.078118
      2.93449      0.00000      0.00000         0.000730      0.019058     -0.078209
      5.86899      0.00000      0.00000         0.021777     -0.010617     -0.087848
      1.46725      2.54135      0.00000         0.015600     -0.009538     -0.077902
      4.40174      2.54135      0.00000        -0.014305     -0.009586     -0.060430
      7.33623      2.54135      0.00000         0.007272     -0.013673     -0.049451
      2.93449      5.08269      0.00000         0.002042      0.024492     -0.085260
      5.86899      5.08269      0.00000        -0.008670      0.012563     -0.049257
      8.80348      5.08269      0.00000         0.009999      0.005089     -0.052852
      1.46725      0.84712      2.39600         0.011248      0.012554      0.120920
      4.40174      0.84712      2.39600        -0.009034      0.010433      0.100451
      7.33623      0.84712      2.39600        -0.011435      0.072116      0.083950
      2.93449      3.38846      2.39600        -0.000615     -0.008437      0.104846
      5.86899      3.38846      2.39600        -0.032149     -0.014257     -0.008519
      8.80348      3.38846      2.39600         0.007199     -0.010091     -0.010191
      4.40174      5.92981      2.39600         0.052768     -0.039862      0.084828
      7.33623      5.92981      2.39600        -0.008762      0.017967     -0.014751
     10.27073      5.92981      2.39600        -0.061338     -0.030671      0.098421
      8.81102      1.70778      4.79558         0.000891     -0.008281     -0.002176
      2.91647      1.69548      4.84397        -0.008004     -0.006383      0.014555
      5.83032      1.69684      4.79318        -0.016214      0.013508      0.014195
     10.26971      4.21490      4.78867        -0.012468      0.003371     -0.004584
      4.37663      4.21469      4.79350         0.003295     -0.021759      0.015996
      7.31473      4.23205      4.73520        -0.004982     -0.003873      0.000173
     11.72962      6.78053      4.74076        -0.005078     -0.003342      0.000229
      5.87558      6.79182      4.79407        -0.005385     -0.000112     -0.001119
      8.77694      6.80128      4.78683         0.000498     -0.014676     -0.006882
     13.17447      7.62200      7.13655        -0.023240     -0.015904     -0.001917
      7.37254      7.46294      7.30345        -0.052784     -0.050915      0.023031
     10.30108      7.61719      7.16973        -0.015110     -0.007085     -0.011870
     10.12846      2.67964      7.31615        -0.066103     -0.021705      0.017441
      4.40974      2.56453      7.31914         0.003959     -0.000323      0.078366
      7.27740      2.55381      7.16331        -0.025851     -0.002632     -0.010168
     11.73291      5.13551      7.17084        -0.014911     -0.011939     -0.011934
      5.83725      5.05174      7.16269        -0.015962     -0.026218     -0.009752
      8.75584      5.07276      7.11030        -0.022837     -0.019021      0.013937
      2.71672      1.58472      8.48008         0.313897      0.179449     -0.058147
 -----------------------------------------------------------------------------------
    total drift:                                0.004211     -0.007358     -0.015434


--------------------------------------------------------------------------------------------------------



  FREE ENERGIE OF THE ION-ELECTRON SYSTEM (eV)
  ---------------------------------------------------
  free  energy   TOTEN  =      -114.93888741 eV

  energy  without entropy=     -114.91086985  energy(sigma->0) =     -114.92954822



--------------------------------------------------------------------------------------------------------


    POTLOK:  cpu time      0.0535: real time      0.0537


--------------------------------------------------------------------------------------------------------


     LOOP+:  cpu time     75.4750: real time     75.8923
 vacuum level on the upper side and lower side of the slab         5.968         5.495
    4ORBIT:  cpu time      0.0000: real time      0.0000

 total amount of memory used by VASP MPI-rank0    61932. kBytes
=======================================================================

   base      :      30000. kBytes
   nonlr-proj:       5453. kBytes
   fftplans  :       4620. kBytes
   grid      :       7634. kBytes
   one-center:         31. kBytes
   wavefun   :      14194. kBytes

  
  
 General timing and accounting informations for this job:
 ========================================================
  
                  Total CPU time used (sec):       78.318
                            User time (sec):       76.168
                          System time (sec):        2.150
                         Elapsed time (sec):       79.573
  
                   Maximum memory used (kb):      336604.
                   Average memory used (kb):          N/A
  
                          Minor page faults:        93115
                          Major page faults:          139
                 Voluntary context switches:         2067
