 running   48 mpi-ranks, with    1 threads/rank, on    1 nodes
 distrk:  each k-point on   48 cores,    1 groups
 distr:  one band on   24 cores,    2 groups
 vasp.6.4.3 19Mar24 (build Oct  2 2024 09:01:45) complex                         
 POSCAR found type information on POSCAR AuO 
 POSCAR found :  2 types and      37 ions
 scaLAPACK will be used
 LDA part: xc-table for (Slater+PW92), standard interpolation
 POSCAR, INCAR and KPOINTS ok, starting setup
 FFT: planning ... GRIDC
 FFT: planning ... GRID_SOFT
 FFT: planning ... GRID
 WAVECAR not read
 WARNING: random wavefunctions but no delay for mixing, default for NELMDL
 entering main loop
       N       E                     dE             d eps       ncg     rms          rms(c)
DAV:   1     0.247357375937E+04    0.24736E+04   -0.15921E+05  2904   0.117E+03
DAV:   2     0.348483693407E+02   -0.24387E+04   -0.22530E+04  3352   0.271E+02
DAV:   3    -0.122508895166E+03   -0.15736E+03   -0.15010E+03  3296   0.622E+01
DAV:   4    -0.126749615713E+03   -0.42407E+01   -0.42053E+01  3272   0.103E+01
DAV:   5    -0.126895751935E+03   -0.14614E+00   -0.14576E+00  3456   0.189E+00    0.445E+01
RMM:   6    -0.121101372281E+03    0.57944E+01   -0.30178E+01  3136   0.116E+01    0.373E+01
RMM:   7    -0.134666669048E+03   -0.13565E+02   -0.37195E+01  3357   0.789E+00    0.322E+01
RMM:   8    -0.135823206630E+03   -0.11565E+01   -0.33777E+01  3419   0.841E+00    0.260E+01
RMM:   9    -0.118220852585E+03    0.17602E+02   -0.12779E+01  3274   0.590E+00    0.119E+01
RMM:  10    -0.115171053549E+03    0.30498E+01   -0.59918E+00  3285   0.440E+00    0.402E+00
RMM:  11    -0.115249397723E+03   -0.78344E-01   -0.15567E+00  3272   0.182E+00    0.606E+00
RMM:  12    -0.115091648241E+03    0.15775E+00   -0.83904E-01  3242   0.148E+00    0.225E+00
RMM:  13    -0.115015867822E+03    0.75780E-01   -0.61207E-02  3162   0.507E-01    0.184E+00
RMM:  14    -0.114943262640E+03    0.72605E-01   -0.35147E-02  3232   0.341E-01    0.786E-01
RMM:  15    -0.114935043700E+03    0.82189E-02   -0.19103E-02  3347   0.193E-01    0.193E-01
RMM:  16    -0.114937424041E+03   -0.23803E-02   -0.23979E-03  3261   0.766E-02    0.235E-01
RMM:  17    -0.114937782541E+03   -0.35850E-03   -0.21402E-03  3271   0.610E-02    0.622E-02
RMM:  18    -0.114937974439E+03   -0.19190E-03   -0.28970E-04  2216   0.247E-02    0.463E-02
RMM:  19    -0.114938567596E+03   -0.59316E-03   -0.20027E-04  2079   0.201E-02    0.195E-02
RMM:  20    -0.114938734612E+03   -0.16702E-03   -0.67836E-05  1923   0.120E-02    0.175E-02
RMM:  21    -0.114938853624E+03   -0.11901E-03   -0.27511E-05  1560   0.751E-03    0.133E-02
RMM:  22    -0.114938887413E+03   -0.33789E-04   -0.53629E-06   796   0.470E-03
   1 F= -.11493889E+03 E0= -.11492955E+03  d E =-.280176E-01
