<?xml version="1.0" encoding="ISO-8859-1"?>
<modeling>
 <generator>
  <i name="program" type="string">vasp </i>
  <i name="version" type="string">6.4.3  </i>
  <i name="subversion" type="string">19Mar24 (build Oct  2 2024 09:01:45) complex                          parallel </i>
  <i name="platform" type="string">LinuxGNU </i>
  <i name="date" type="string">2025 02 17 </i>
  <i name="time" type="string">19:40:00 </i>
 </generator>
 <incar>
  <i type="string" name="PREC">Accurate</i>
  <i type="string" name="ALGO">Fast</i>
  <i type="int" name="ICHARG">     2</i>
  <i type="int" name="IBRION">    -1</i>
  <i name="EDIFF">      0.00010000</i>
  <i name="EDIFFG">     -0.03000000</i>
  <i type="int" name="ISYM">     0</i>
  <i name="ENCUT">    400.00000000</i>
  <i type="string" name="LREAL">Auto</i>
  <i type="int" name="ISMEAR">     1</i>
  <i name="SIGMA">      0.10000000</i>
  <i type="logical" name="LWAVE"> F  </i>
  <i type="logical" name="LCHARG"> F  </i>
  <i type="string" name="GGA">PE</i>
  <i type="logical" name="LDIPOL"> T  </i>
  <i type="int" name="IDIPOL">     3</i>
 </incar>
 <primitive_cell>
  <structure name="primitive_cell" >
   <crystal>
    <varray name="basis" >
     <v>       8.80347943       0.00000000       0.00000000 </v>
     <v>       4.40173971       7.62403682       0.00000000 </v>
     <v>       0.00000000       0.00000000      23.18801085 </v>
    </varray>
    <i name="volume">   1556.33410245 </i>
    <varray name="rec_basis" >
     <v>       0.11359145      -0.06558205       0.00000000 </v>
     <v>       0.00000000       0.13116411       0.00000000 </v>
     <v>       0.00000000       0.00000000       0.04312573 </v>
    </varray>
   </crystal>
   <varray name="positions" >
    <v>       0.00000000       0.00000000       0.00000000 </v>
    <v>       0.33333333       0.00000000       0.00000000 </v>
    <v>       0.66666667       0.00000000       0.00000000 </v>
    <v>       0.00000000       0.33333333       0.00000000 </v>
    <v>       0.33333333       0.33333333       0.00000000 </v>
    <v>       0.66666667       0.33333333       0.00000000 </v>
    <v>       0.00000000       0.66666667       0.00000000 </v>
    <v>       0.33333333       0.66666667       0.00000000 </v>
    <v>       0.66666667       0.66666667       0.00000000 </v>
    <v>       0.11111111       0.11111111       0.10332942 </v>
    <v>       0.44444444       0.11111111       0.10332942 </v>
    <v>       0.77777778       0.11111111       0.10332942 </v>
    <v>       0.11111111       0.44444444       0.10332942 </v>
    <v>       0.44444444       0.44444444       0.10332942 </v>
    <v>       0.77777778       0.44444444       0.10332942 </v>
    <v>       0.11111111       0.77777778       0.10332942 </v>
    <v>       0.44444444       0.77777778       0.10332942 </v>
    <v>       0.77777778       0.77777778       0.10332942 </v>
    <v>       0.88885723       0.22399937       0.20681300 </v>
    <v>       0.22009262       0.22238645       0.20889991 </v>
    <v>       0.55099200       0.22256454       0.20670927 </v>
    <v>       0.89012997       0.55284336       0.20651472 </v>
    <v>       0.22073968       0.55281617       0.20672335 </v>
    <v>       0.55334418       0.55509297       0.20420892 </v>
    <v>       0.88770315       0.88936220       0.20444857 </v>
    <v>       0.22199358       0.89084331       0.20674799 </v>
    <v>       0.55094328       0.89208431       0.20643552 </v>
    <v>       0.99664060       0.99973241       0.30776886 </v>
    <v>       0.34802247       0.97887004       0.31496685 </v>
    <v>       0.67056360       0.99910136       0.30920008 </v>
    <v>       0.97477050       0.35147271       0.31551420 </v>
    <v>       0.33272173       0.33637376       0.31564339 </v>
    <v>       0.65916567       0.33496847       0.30892298 </v>
    <v>       0.99596028       0.67359511       0.30924773 </v>
    <v>       0.33175845       0.66260697       0.30889636 </v>
    <v>       0.66190665       0.66536369       0.30663706 </v>
    <v>       0.20466707       0.20785874       0.36570949 </v>
   </varray>
  </structure>
  <varray name="primitive_index" >
   <v type="int" >        1 </v>
   <v type="int" >        2 </v>
   <v type="int" >        3 </v>
   <v type="int" >        4 </v>
   <v type="int" >        5 </v>
   <v type="int" >        6 </v>
   <v type="int" >        7 </v>
   <v type="int" >        8 </v>
   <v type="int" >        9 </v>
   <v type="int" >       10 </v>
   <v type="int" >       11 </v>
   <v type="int" >       12 </v>
   <v type="int" >       13 </v>
   <v type="int" >       14 </v>
   <v type="int" >       15 </v>
   <v type="int" >       16 </v>
   <v type="int" >       17 </v>
   <v type="int" >       18 </v>
   <v type="int" >       19 </v>
   <v type="int" >       20 </v>
   <v type="int" >       21 </v>
   <v type="int" >       22 </v>
   <v type="int" >       23 </v>
   <v type="int" >       24 </v>
   <v type="int" >       25 </v>
   <v type="int" >       26 </v>
   <v type="int" >       27 </v>
   <v type="int" >       28 </v>
   <v type="int" >       29 </v>
   <v type="int" >       30 </v>
   <v type="int" >       31 </v>
   <v type="int" >       32 </v>
   <v type="int" >       33 </v>
   <v type="int" >       34 </v>
   <v type="int" >       35 </v>
   <v type="int" >       36 </v>
   <v type="int" >       37 </v>
  </varray>
 </primitive_cell>
 <kpoints>
  <generation param="Monkhorst-Pack">
   <v type="int" name="divisions">       2        2        1 </v>
   <v name="usershift">      0.00000000       0.00000000       0.00000000 </v>
   <v name="genvec1">      0.50000000       0.00000000       0.00000000 </v>
   <v name="genvec2">      0.00000000       0.50000000       0.00000000 </v>
   <v name="genvec3">      0.00000000       0.00000000       1.00000000 </v>
   <v name="shift">      0.50000000       0.50000000       0.00000000 </v>
  </generation>
  <varray name="kpointlist" >
   <v>       0.25000000       0.25000000       0.00000000 </v>
   <v>       0.00000000       0.25000000       0.00000000 </v>
   <v>      -0.25000000       0.00000000       0.00000000 </v>
   <v>      -0.25000000       0.25000000       0.00000000 </v>
   <v>       0.50000000      -0.25000000       0.00000000 </v>
   <v>      -0.25000000       0.50000000       0.00000000 </v>
  </varray>
  <varray name="weights" >
   <v>       0.16666667 </v>
   <v>       0.16666667 </v>
   <v>       0.16666667 </v>
   <v>       0.16666667 </v>
   <v>       0.16666667 </v>
   <v>       0.16666667 </v>
  </varray>
 </kpoints>
 <parameters>
  <separator name="general" >
   <i type="string" name="SYSTEM">unknown system</i>
   <i type="logical" name="LCOMPAT"> F  </i>
  </separator>
  <separator name="electronic" >
   <i type="string" name="PREC">accura</i>
   <i name="ENMAX">    400.00000000</i>
   <i name="ENAUG">    605.39200000</i>
   <i name="EDIFF">      0.00010000</i>
   <i type="int" name="IALGO">    68</i>
   <i type="int" name="IWAVPR">    10</i>
   <i type="int" name="NBANDS">   242</i>
   <i type="int" name="NBANDSLOW">    -1</i>
   <i type="int" name="NBANDSHIGH">    -1</i>
   <i name="NELECT">    402.00000000</i>
   <i type="int" name="TURBO">     0</i>
   <i type="int" name="IRESTART">     0</i>
   <i type="int" name="NREBOOT">     0</i>
   <i type="int" name="NMIN">     0</i>
   <i name="EREF">      0.00000000</i>
   <separator name="electronic smearing" >
    <i type="int" name="ISMEAR">     1</i>
    <i name="SIGMA">      0.10000000</i>
    <i name="KSPACING">      0.50000000</i>
    <i type="logical" name="KGAMMA"> T  </i>
    <i type="logical" name="KBLOWUP"> T  </i>
   </separator>
   <separator name="electronic projectors" >
    <i type="logical" name="LREAL"> T  </i>
    <v name="ROPT">     -0.00025000     -0.00025000</v>
    <i type="int" name="LMAXPAW">  -100</i>
    <i type="int" name="LMAXMIX">     2</i>
    <i type="logical" name="NLSPLINE"> F  </i>
   </separator>
   <separator name="electronic startup" >
    <i type="int" name="ISTART">     0</i>
    <i type="int" name="ICHARG">     2</i>
    <i type="int" name="INIWAV">     1</i>
   </separator>
   <separator name="electronic spin" >
    <i type="int" name="ISPIN">     1</i>
    <i type="logical" name="LNONCOLLINEAR"> F  </i>
    <v name="MAGMOM">      1.00000000      1.00000000      1.00000000      1.00000000      1.00000000      1.00000000      1.00000000      1.00000000      1.00000000      1.00000000      1.00000000      1.00000000      1.00000000      1.00000000      1.00000000      1.00000000      1.00000000      1.00000000      1.00000000      1.00000000
      1.00000000      1.00000000      1.00000000      1.00000000      1.00000000      1.00000000      1.00000000      1.00000000      1.00000000      1.00000000      1.00000000      1.00000000      1.00000000      1.00000000      1.00000000      1.00000000      1.00000000</v>
    <i name="NUPDOWN">     -1.00000000</i>
    <i type="logical" name="LSORBIT"> F  </i>
    <v name="SAXIS">      0.00000000      0.00000000      1.00000000</v>
    <i type="logical" name="LSPIRAL"> F  </i>
    <v name="QSPIRAL">      0.00000000      0.00000000      0.00000000</v>
    <i type="logical" name="LZEROZ"> F  </i>
   </separator>
   <separator name="electronic exchange-correlation" >
    <i type="logical" name="LASPH"> F  </i>
   </separator>
   <separator name="electronic convergence" >
    <i type="int" name="NELM">    60</i>
    <i type="int" name="NELMDL">     0</i>
    <i type="int" name="NELMIN">     2</i>
    <i name="ENINI">    400.00000000</i>
    <separator name="electronic convergence detail" >
     <i type="logical" name="LDIAG"> T  </i>
     <i type="logical" name="LSUBROT"> F  </i>
     <i name="WEIMIN">      0.00000000</i>
     <i name="EBREAK">      0.00000010</i>
     <i name="DEPER">      0.30000000</i>
     <i type="int" name="NRMM">     4</i>
     <i name="TIME">      0.40000000</i>
    </separator>
   </separator>
   <separator name="electronic mixer" >
    <i name="AMIX">      0.40000000</i>
    <i name="BMIX">      1.00000000</i>
    <i name="AMIN">      0.10000000</i>
    <i name="AMIX_MAG">      1.60000000</i>
    <i name="BMIX_MAG">      1.00000000</i>
    <separator name="electronic mixer details" >
     <i type="int" name="IMIX">     4</i>
     <i type="logical" name="MIXFIRST"> F  </i>
     <i type="int" name="MAXMIX">   -45</i>
     <i name="WC">    100.00000000</i>
     <i type="int" name="INIMIX">     1</i>
     <i type="int" name="MIXPRE">     1</i>
     <i type="int" name="MREMOVE">     5</i>
    </separator>
   </separator>
   <separator name="electronic dipolcorrection" >
    <i type="logical" name="LDIPOL"> T  </i>
    <i type="logical" name="LMONO"> F  </i>
    <i type="int" name="IDIPOL">     3</i>
    <i name="EPSILON">      1.00000000</i>
    <v name="DIPOL">   -100.00000000   -100.00000000   -100.00000000</v>
    <i name="EFIELD">      0.00000000</i>
    <i type="logical" name="LVACPOTAV"> F  </i>
   </separator>
  </separator>
  <separator name="grids" >
   <i type="int" name="NGX">    60</i>
   <i type="int" name="NGY">    60</i>
   <i type="int" name="NGZ">   160</i>
   <i type="int" name="NGXF">   120</i>
   <i type="int" name="NGYF">   120</i>
   <i type="int" name="NGZF">   320</i>
   <i type="logical" name="ADDGRID"> F  </i>
  </separator>
  <separator name="ionic" >
   <i type="int" name="NSW">     0</i>
   <i type="int" name="IBRION">    -1</i>
   <i type="int" name="MDALGO">     0</i>
   <i type="int" name="ISIF">     2</i>
   <i name="PSTRESS">      0.00000000</i>
   <i name="EDIFFG">     -0.03000000</i>
   <i type="int" name="NFREE">     0</i>
   <i name="POTIM">      0.50000000</i>
   <i name="SMASS">     -3.00000000</i>
   <i name="SCALEE">      1.00000000</i>
  </separator>
  <separator name="ionic md" >
   <i name="TEBEG">      0.00010000</i>
   <i name="TEEND">      0.00010000</i>
   <i type="int" name="NBLOCK">     1</i>
   <i type="int" name="KBLOCK">     1</i>
   <i type="int" name="NPACO">   256</i>
   <i name="APACO">     10.00000000</i>
  </separator>
  <separator name="symmetry" >
   <i type="int" name="ISYM">     0</i>
   <i name="SYMPREC">      0.00001000</i>
  </separator>
  <separator name="dos" >
   <i type="int" name="LORBIT">     0</i>
   <v name="RWIGS">     -1.00000000     -1.00000000</v>
   <i type="int" name="NEDOS">   301</i>
   <i name="EMIN">     10.00000000</i>
   <i name="EMAX">    -10.00000000</i>
   <i name="EFERMI">      0.00000000</i>
  </separator>
  <separator name="writing" >
   <i type="int" name="NWRITE">     2</i>
   <i type="logical" name="LWAVE"> F  </i>
   <i type="logical" name="LDOWNSAMPLE"> F  </i>
   <i type="logical" name="LCHARG"> F  </i>
   <i type="logical" name="LPARD"> F  </i>
   <i type="logical" name="LVTOT"> F  </i>
   <i type="logical" name="LVHAR"> F  </i>
   <i type="logical" name="LELF"> F  </i>
   <i type="logical" name="LOPTICS"> F  </i>
   <v name="STM">      0.00000000      0.00000000      0.00000000      0.00000000      0.00000000      0.00000000      0.00000000</v>
  </separator>
  <separator name="performance" >
   <i type="int" name="NPAR">     2</i>
   <i type="int" name="NSIM">     4</i>
   <i type="int" name="NBLK">    -1</i>
   <i type="logical" name="LPLANE"> T  </i>
   <i type="logical" name="LSCALAPACK"> T  </i>
   <i type="logical" name="LSCAAWARE"> F  </i>
   <i type="logical" name="LSCALU"> F  </i>
   <i type="logical" name="LASYNC"> F  </i>
   <i type="logical" name="LORBITALREAL"> F  </i>
  </separator>
  <separator name="miscellaneous" >
   <i type="int" name="IDIOT">     3</i>
   <i type="int" name="PHON_NSTRUCT">    -1</i>
   <i type="logical" name="LMUSIC"> F  </i>
   <v name="POMASS">    196.96600000     16.00000000</v>
   <v name="DARWINR">      0.00000000      0.00000000</v>
   <v name="DARWINV">      1.00000000      1.00000000</v>
   <i type="logical" name="LCORR"> T  </i>
  </separator>
  <i type="logical" name="GGA_COMPAT"> T  </i>
  <i type="logical" name="LBERRY"> F  </i>
  <i type="int" name="ICORELEVEL">     0</i>
  <i type="logical" name="LDAU"> F  </i>
  <i type="int" name="I_CONSTRAINED_M">     0</i>
  <separator name="electronic exchange-correlation" >
   <i type="string" name="GGA    ">PE</i>
   <i type="string" name="XC_C">1</i>
   <i type="int" name="VOSKOWN">     0</i>
   <i type="logical" name="LHFCALC"> F  </i>
   <i type="string" name="PRECFOCK"></i>
   <i type="logical" name="LSYMGRAD"> F  </i>
   <i type="logical" name="LHFONE"> F  </i>
   <i type="logical" name="LRHFCALC"> F  </i>
   <i type="logical" name="LTHOMAS"> F  </i>
   <i type="logical" name="LMODELHF"> F  </i>
   <i type="logical" name="LFOCKACE"> F  </i>
   <i name="ENCUT4O">     -1.00000000</i>
   <i type="int" name="EXXOEP">     0</i>
   <i type="int" name="FOURORBIT">     0</i>
   <i name="AEXX">      0.00000000</i>
   <i name="HFALPHA">      0.00000000</i>
   <i name="MCALPHA">      0.00000000</i>
   <i name="ALDAX">      1.00000000</i>
   <i name="AGGAX">      1.00000000</i>
   <i name="AMGGAX">      1.00000000</i>
   <i name="ALDAC">      1.00000000</i>
   <i name="AGGAC">      1.00000000</i>
   <i name="AMGGAC">      1.00000000</i>
   <i type="int" name="NKREDX">     1</i>
   <i type="int" name="NKREDY">     1</i>
   <i type="int" name="NKREDZ">     1</i>
   <i type="logical" name="SHIFTRED"> F  </i>
   <i type="logical" name="ODDONLY"> F  </i>
   <i type="logical" name="EVENONLY"> F  </i>
   <i type="int" name="LMAXFOCK">     0</i>
   <i type="int" name="NMAXFOCKAE">     0</i>
   <i type="logical" name="LFOCKAEDFT"> F  </i>
   <i name="HFSCREEN">      0.00000000</i>
   <i name="HFSCREENC">      0.00000000</i>
   <i type="int" name="NBANDSGWLOW">     0</i>
  </separator>
  <separator name="vdW DFT" >
   <i type="logical" name="LUSE_VDW"> F  </i>
   <i type="int" name="IVDW_NL">    -1</i>
   <i type="logical" name="LSPIN_VDW"> F  </i>
   <i name="ZAB_VDW">     -0.84910000</i>
   <i name="GAMMA_VDW">      1.39626340</i>
   <i name="ALPHA_VDW">      0.00000000</i>
   <i name="PARAM1">      0.12340000</i>
   <i name="PARAM2">      1.00000000</i>
   <i name="BPARAM">      6.30000000</i>
   <i name="CPARAM">      0.00930000</i>
  </separator>
  <separator name="model GW" >
   <i type="int" name="MODEL_GW">     0</i>
   <i name="MODEL_EPS0">     25.23785031</i>
   <i name="MODEL_ALPHA">      1.00000000</i>
  </separator>
  <separator name="linear response parameters" >
   <i type="logical" name="LEPSILON"> F  </i>
   <i type="logical" name="LRPA"> F  </i>
   <i type="logical" name="LNABLA"> F  </i>
   <i type="logical" name="LVEL"> F  </i>
   <i name="CSHIFT">      0.10000000</i>
   <i name="OMEGAMAX">     -1.00000000</i>
   <i name="DEG_THRESHOLD">      0.00200000</i>
   <i name="RTIME">     -0.10000000</i>
   <i name="WPLASMAI">      0.00000000</i>
   <v name="DFIELD">      0.00000000      0.00000000      0.00000000</v>
   <v name="WPLASMA">      0.00000000      0.00000000      0.00000000      0.00000000      0.00000000      0.00000000      0.00000000      0.00000000      0.00000000</v>
  </separator>
  <separator name="orbital magnetization" >
   <i type="logical" name="NUCIND"> F  </i>
   <v name="MAGPOS">      0.00000000      0.00000000      0.00000000</v>
   <i type="logical" name="LNICSALL"> T  </i>
   <i type="logical" name="ORBITALMAG"> F  </i>
   <i type="logical" name="LMAGBLOCH"> F  </i>
   <i type="logical" name="LCHIMAG"> F  </i>
   <i type="logical" name="LGAUGE"> T  </i>
   <i type="int" name="MAGATOM">     0</i>
   <v name="MAGDIPOL">      0.00000000      0.00000000      0.00000000</v>
   <v name="AVECCONST">      0.00000000      0.00000000      0.00000000</v>
  </separator>
  <separator name="response functions" >
   <i type="logical" name="LALL_IN_ONE"> F  </i>
   <i type="int" name="IALL_IN_ONE">    -1</i>
   <i type="int" name="NBANDS_WAVE">    -1</i>
   <i type="logical" name="LFINITE_TEMPERATURE"> F  </i>
   <i type="logical" name="LADDER"> F  </i>
   <i type="logical" name="LRPAFORCE"> F  </i>
   <i type="logical" name="LFXC"> F  </i>
   <i type="logical" name="LHARTREE"> T  </i>
   <i type="int" name="IBSE">     0</i>
   <v type="int" name="KPOINT">    -1     0     0     0</v>
   <i type="logical" name="LTCTC"> F  </i>
   <i type="logical" name="LTCTE"> F  </i>
   <i type="logical" name="LTETE"> F  </i>
   <i type="logical" name="LTRIPLET"> F  </i>
   <i type="logical" name="LFXCEPS"> F  </i>
   <i type="logical" name="LFXHEG"> F  </i>
   <i type="int" name="NATURALO">     2</i>
   <i type="logical" name="LHOLEGF"> F  </i>
   <i type="logical" name="L2ORDER"> F  </i>
   <i type="logical" name="LDMP1"> F  </i>
   <i type="logical" name="LMP2LT"> F  </i>
   <i type="logical" name="LSMP2LT"> F  </i>
   <i type="logical" name="LGWLF"> F  </i>
   <i name="ENCUTGW">     -1.60000002</i>
   <i name="ENCUTGWSOFT">     -1.60000002</i>
   <i name="ENCUTLF">     -1.00000000</i>
   <i type="logical" name="ESF_SPLINES"> F  </i>
   <i name="ESF_CONV">      0.01000000</i>
   <i type="int" name="ESF_NINTER">    15</i>
   <i type="int" name="LMAXMP2">    -1</i>
   <i name="SCISSOR">      0.00000000</i>
   <i type="int" name="NOMEGA">     0</i>
   <i type="int" name="NOMEGAR">     0</i>
   <i type="int" name="NBANDSGW">    -1</i>
   <i type="int" name="NBANDSO">    -1</i>
   <i type="int" name="NBANDSV">    -1</i>
   <i type="int" name="NELMGW">     1</i>
   <i type="int" name="NELMHF">     1</i>
   <i type="int" name="DIM">     3</i>
   <i type="int" name="IESPILON">     4</i>
   <i type="int" name="ANTIRES">     0</i>
   <i name="OMEGAMAX">    -30.00000000</i>
   <i name="OMEGAMIN">    -30.00000000</i>
   <i name="OMEGATL">   -200.00000000</i>
   <i type="int" name="OMEGAGRID">     0</i>
   <i name="CSHIFT">     -0.10000000</i>
   <i type="logical" name="LSELFENERGY"> F  </i>
   <i type="logical" name="LSPECTRAL"> F  </i>
   <i type="logical" name="LSPECTRALGW"> F  </i>
   <i type="logical" name="LSINGLES"> F  </i>
   <i type="logical" name="LFERMIGW"> F  </i>
   <i type="logical" name="ODDONLYGW"> F  </i>
   <i type="logical" name="EVENONLYGW"> F  </i>
   <i type="int" name="NKREDLFX">     1</i>
   <i type="int" name="NKREDLFY">     1</i>
   <i type="int" name="NKREDLFZ">     1</i>
   <i type="int" name="MAXMEM">  2800</i>
   <i type="int" name="TELESCOPE">     0</i>
   <i type="int" name="NTAUPAR">    -1</i>
   <i type="int" name="NOMEGAPAR">    -1</i>
   <i name="DAMP_NEWTON">      0.80000001</i>
   <i name="LAMBDA">      1.00000000</i>
  </separator>
  <separator name="External order field" >
   <i name="OFIELD_KAPPA">      0.00000000</i>
   <v name="OFIELD_K">      0.00000000      0.00000000      0.00000000</v>
   <i name="OFIELD_Q6_NEAR">      0.00000000</i>
   <i name="OFIELD_Q6_FAR">      0.00000000</i>
   <i name="OFIELD_A">      0.00000000</i>
  </separator>
  <separator name="optional k-points parameters" >
   <i type="int" name="KPOINTS_OPT_MODE">     1</i>
   <i type="logical" name="LKPOINTS_OPT"> F  </i>
  </separator>
 </parameters>
 <atominfo>
  <atoms>      37 </atoms>
  <types>       2 </types>
  <array name="atoms" >
   <dimension dim="1">ion</dimension>
   <field type="string">element</field>
   <field type="int">atomtype</field>
   <set>
    <rc><c>Au</c><c>   1</c></rc>
    <rc><c>Au</c><c>   1</c></rc>
    <rc><c>Au</c><c>   1</c></rc>
    <rc><c>Au</c><c>   1</c></rc>
    <rc><c>Au</c><c>   1</c></rc>
    <rc><c>Au</c><c>   1</c></rc>
    <rc><c>Au</c><c>   1</c></rc>
    <rc><c>Au</c><c>   1</c></rc>
    <rc><c>Au</c><c>   1</c></rc>
    <rc><c>Au</c><c>   1</c></rc>
    <rc><c>Au</c><c>   1</c></rc>
    <rc><c>Au</c><c>   1</c></rc>
    <rc><c>Au</c><c>   1</c></rc>
    <rc><c>Au</c><c>   1</c></rc>
    <rc><c>Au</c><c>   1</c></rc>
    <rc><c>Au</c><c>   1</c></rc>
    <rc><c>Au</c><c>   1</c></rc>
    <rc><c>Au</c><c>   1</c></rc>
    <rc><c>Au</c><c>   1</c></rc>
    <rc><c>Au</c><c>   1</c></rc>
    <rc><c>Au</c><c>   1</c></rc>
    <rc><c>Au</c><c>   1</c></rc>
    <rc><c>Au</c><c>   1</c></rc>
    <rc><c>Au</c><c>   1</c></rc>
    <rc><c>Au</c><c>   1</c></rc>
    <rc><c>Au</c><c>   1</c></rc>
    <rc><c>Au</c><c>   1</c></rc>
    <rc><c>Au</c><c>   1</c></rc>
    <rc><c>Au</c><c>   1</c></rc>
    <rc><c>Au</c><c>   1</c></rc>
    <rc><c>Au</c><c>   1</c></rc>
    <rc><c>Au</c><c>   1</c></rc>
    <rc><c>Au</c><c>   1</c></rc>
    <rc><c>Au</c><c>   1</c></rc>
    <rc><c>Au</c><c>   1</c></rc>
    <rc><c>Au</c><c>   1</c></rc>
    <rc><c>O </c><c>   2</c></rc>
   </set>
  </array>
  <array name="atomtypes" >
   <dimension dim="1">type</dimension>
   <field type="int">atomspertype</field>
   <field type="string">element</field>
   <field>mass</field>
   <field>valence</field>
   <field type="string">pseudopotential</field>
   <set>
    <rc><c>  36</c><c>Au</c><c>    196.96600000</c><c>     11.00000000</c><c>  PAW_PBE Au 04Oct2007                  </c></rc>
    <rc><c>   1</c><c>O </c><c>     16.00000000</c><c>      6.00000000</c><c>  PAW_PBE O 08Apr2002                   </c></rc>
   </set>
  </array>
 </atominfo>
 <structure name="initialpos" >
  <crystal>
   <varray name="basis" >
    <v>       8.80347943       0.00000000       0.00000000 </v>
    <v>       4.40173971       7.62403682       0.00000000 </v>
    <v>       0.00000000       0.00000000      23.18801085 </v>
   </varray>
   <i name="volume">   1556.33410245 </i>
   <varray name="rec_basis" >
    <v>       0.11359145      -0.06558205       0.00000000 </v>
    <v>       0.00000000       0.13116411       0.00000000 </v>
    <v>       0.00000000       0.00000000       0.04312573 </v>
   </varray>
  </crystal>
  <varray name="positions" >
   <v>       0.00000000       0.00000000       0.00000000 </v>
   <v>       0.33333333       0.00000000       0.00000000 </v>
   <v>       0.66666667       0.00000000       0.00000000 </v>
   <v>       0.00000000       0.33333333       0.00000000 </v>
   <v>       0.33333333       0.33333333       0.00000000 </v>
   <v>       0.66666667       0.33333333       0.00000000 </v>
   <v>       0.00000000       0.66666667       0.00000000 </v>
   <v>       0.33333333       0.66666667       0.00000000 </v>
   <v>       0.66666667       0.66666667       0.00000000 </v>
   <v>       0.11111111       0.11111111       0.10332942 </v>
   <v>       0.44444444       0.11111111       0.10332942 </v>
   <v>       0.77777778       0.11111111       0.10332942 </v>
   <v>       0.11111111       0.44444444       0.10332942 </v>
   <v>       0.44444444       0.44444444       0.10332942 </v>
   <v>       0.77777778       0.44444444       0.10332942 </v>
   <v>       0.11111111       0.77777778       0.10332942 </v>
   <v>       0.44444444       0.77777778       0.10332942 </v>
   <v>       0.77777778       0.77777778       0.10332942 </v>
   <v>       0.88885723       0.22399937       0.20681300 </v>
   <v>       0.22009262       0.22238645       0.20889991 </v>
   <v>       0.55099200       0.22256454       0.20670927 </v>
   <v>       0.89012997       0.55284336       0.20651472 </v>
   <v>       0.22073968       0.55281617       0.20672335 </v>
   <v>       0.55334418       0.55509297       0.20420892 </v>
   <v>       0.88770315       0.88936220       0.20444857 </v>
   <v>       0.22199358       0.89084331       0.20674799 </v>
   <v>       0.55094328       0.89208431       0.20643552 </v>
   <v>       0.99664060       0.99973241       0.30776886 </v>
   <v>       0.34802247       0.97887004       0.31496685 </v>
   <v>       0.67056360       0.99910136       0.30920008 </v>
   <v>       0.97477050       0.35147271       0.31551420 </v>
   <v>       0.33272173       0.33637376       0.31564339 </v>
   <v>       0.65916567       0.33496847       0.30892298 </v>
   <v>       0.99596028       0.67359511       0.30924773 </v>
   <v>       0.33175845       0.66260697       0.30889636 </v>
   <v>       0.66190665       0.66536369       0.30663706 </v>
   <v>       0.20466707       0.20785874       0.36570949 </v>
  </varray>
  <varray name="selective"  type="logical" >
   <v type="logical" >  F  F  F </v>
   <v type="logical" >  F  F  F </v>
   <v type="logical" >  F  F  F </v>
   <v type="logical" >  F  F  F </v>
   <v type="logical" >  F  F  F </v>
   <v type="logical" >  F  F  F </v>
   <v type="logical" >  F  F  F </v>
   <v type="logical" >  F  F  F </v>
   <v type="logical" >  F  F  F </v>
   <v type="logical" >  F  F  F </v>
   <v type="logical" >  F  F  F </v>
   <v type="logical" >  F  F  F </v>
   <v type="logical" >  F  F  F </v>
   <v type="logical" >  F  F  F </v>
   <v type="logical" >  F  F  F </v>
   <v type="logical" >  F  F  F </v>
   <v type="logical" >  F  F  F </v>
   <v type="logical" >  F  F  F </v>
   <v type="logical" >  T  T  T </v>
   <v type="logical" >  T  T  T </v>
   <v type="logical" >  T  T  T </v>
   <v type="logical" >  T  T  T </v>
   <v type="logical" >  T  T  T </v>
   <v type="logical" >  T  T  T </v>
   <v type="logical" >  T  T  T </v>
   <v type="logical" >  T  T  T </v>
   <v type="logical" >  T  T  T </v>
   <v type="logical" >  T  T  T </v>
   <v type="logical" >  T  T  T </v>
   <v type="logical" >  T  T  T </v>
   <v type="logical" >  T  T  T </v>
   <v type="logical" >  T  T  T </v>
   <v type="logical" >  T  T  T </v>
   <v type="logical" >  T  T  T </v>
   <v type="logical" >  T  T  T </v>
   <v type="logical" >  T  T  T </v>
   <v type="logical" >  T  T  T </v>
  </varray>
  <nose>
   <v>      -3.00000000       0.00000000       0.00010000       0.00010000 </v>
  </nose>
 </structure>
 <calculation>
  <scstep>
   <time name="dav">    3.74    3.76</time>
   <time name="total">    3.81    3.83</time>
   <dipole>
    <v name="dipole">      0.00000000       0.00000000       0.00012033 </v>
    <i name="Tr[quadrupol]">  -4990.94514339 </i>
    <i name="Echarged">      0.00000000 </i>
    <i name="Edipol_quadrupol">      0.00000000 </i>
    <i name="Eion">      0.00000000 </i>
   </dipole>
   <energy>
    <i name="alphaZ">    990.63732633 </i>
    <i name="ewald"> 112746.20483039 </i>
    <i name="hartreedc">-148065.23570496 </i>
    <i name="XCdc">    577.47655271 </i>
    <i name="pawpsdc">  31814.05959759 </i>
    <i name="pawaedc"> -30984.71300122 </i>
    <i name="eentropy">     -0.01221916 </i>
    <i name="bandstr">   1623.99450604 </i>
    <i name="atom">  33771.16187166 </i>
    <i name="e_fr_energy">   2473.57375937 </i>
    <i name="e_wo_entrp">   2473.58597853 </i>
    <i name="e_0_energy">   2473.57783242 </i>
   </energy>
  </scstep>
  <scstep>
   <time name="dav">    4.15    4.17</time>
   <time name="total">    4.15    4.17</time>
   <dipole>
    <v name="dipole">      0.00000000       0.00000000       0.00012033 </v>
    <i name="Tr[quadrupol]">  -4990.94514339 </i>
    <i name="Echarged">      0.00000000 </i>
    <i name="Edipol_quadrupol">      0.00000000 </i>
    <i name="Eion">      0.00000000 </i>
   </dipole>
   <energy>
    <i name="e_fr_energy">     34.84836934 </i>
    <i name="e_wo_entrp">     34.84813849 </i>
    <i name="e_0_energy">     34.84829239 </i>
   </energy>
  </scstep>
  <scstep>
   <time name="dav">    4.06    4.08</time>
   <time name="total">    4.06    4.08</time>
   <dipole>
    <v name="dipole">      0.00000000       0.00000000       0.00012033 </v>
    <i name="Tr[quadrupol]">  -4990.94514339 </i>
    <i name="Echarged">      0.00000000 </i>
    <i name="Edipol_quadrupol">      0.00000000 </i>
    <i name="Eion">      0.00000000 </i>
   </dipole>
   <energy>
    <i name="e_fr_energy">   -122.50889517 </i>
    <i name="e_wo_entrp">   -122.49833435 </i>
    <i name="e_0_energy">   -122.50537489 </i>
   </energy>
  </scstep>
  <scstep>
   <time name="dav">    4.05    4.07</time>
   <time name="total">    4.05    4.07</time>
   <dipole>
    <v name="dipole">      0.00000000       0.00000000       0.00012033 </v>
    <i name="Tr[quadrupol]">  -4990.94514339 </i>
    <i name="Echarged">      0.00000000 </i>
    <i name="Edipol_quadrupol">      0.00000000 </i>
    <i name="Eion">      0.00000000 </i>
   </dipole>
   <energy>
    <i name="e_fr_energy">   -126.74961571 </i>
    <i name="e_wo_entrp">   -126.73854095 </i>
    <i name="e_0_energy">   -126.74592413 </i>
   </energy>
  </scstep>
  <scstep>
   <time name="dav">    4.22    4.24</time>
   <time name="total">    4.38    4.40</time>
   <dipole>
    <v name="dipole">      0.00000000       0.00000000       0.00012033 </v>
    <i name="Tr[quadrupol]">  -4990.94514339 </i>
    <i name="Echarged">      0.00000000 </i>
    <i name="Edipol_quadrupol">      0.00000000 </i>
    <i name="Eion">      0.00000000 </i>
   </dipole>
   <energy>
    <i name="e_fr_energy">   -126.89575194 </i>
    <i name="e_wo_entrp">   -126.88462067 </i>
    <i name="e_0_energy">   -126.89204151 </i>
   </energy>
  </scstep>
  <scstep>
   <time name="diag">    0.60    0.60</time>
   <time name="diis">    2.37    2.38</time>
   <time name="orth">    0.09    0.09</time>
   <time name="total">    3.26    3.28</time>
   <dipole>
    <v name="dipole">      0.00000000       0.00000000       0.61545066 </v>
    <i name="Tr[quadrupol]">  -4987.46366796 </i>
    <i name="Echarged">      0.00000000 </i>
    <i name="Edipol_quadrupol">      0.00000000 </i>
    <i name="Eion">      0.00000000 </i>
   </dipole>
   <energy>
    <i name="e_fr_energy">   -121.10137228 </i>
    <i name="e_wo_entrp">   -121.12866778 </i>
    <i name="e_0_energy">   -121.11047078 </i>
   </energy>
  </scstep>
  <scstep>
   <time name="diag">    0.59    0.59</time>
   <time name="diis">    2.54    2.56</time>
   <time name="orth">    0.09    0.09</time>
   <time name="total">    3.43    3.44</time>
   <dipole>
    <v name="dipole">      0.00000000       0.00000000      -1.53817453 </v>
    <i name="Tr[quadrupol]">  -4988.15901520 </i>
    <i name="Echarged">      0.00000000 </i>
    <i name="Edipol_quadrupol">      0.00000000 </i>
    <i name="Eion">      0.00000000 </i>
   </dipole>
   <energy>
    <i name="e_fr_energy">   -134.66666905 </i>
    <i name="e_wo_entrp">   -134.67178625 </i>
    <i name="e_0_energy">   -134.66837478 </i>
   </energy>
  </scstep>
  <scstep>
   <time name="diag">    0.59    0.59</time>
   <time name="diis">    2.58    2.59</time>
   <time name="orth">    0.09    0.09</time>
   <time name="total">    3.46    3.48</time>
   <dipole>
    <v name="dipole">      0.00000000       0.00000000       1.69139828 </v>
    <i name="Tr[quadrupol]">  -4991.29231056 </i>
    <i name="Echarged">      0.00000000 </i>
    <i name="Edipol_quadrupol">      0.00000000 </i>
    <i name="Eion">      0.00000000 </i>
   </dipole>
   <energy>
    <i name="e_fr_energy">   -135.82320663 </i>
    <i name="e_wo_entrp">   -135.82600955 </i>
    <i name="e_0_energy">   -135.82414094 </i>
   </energy>
  </scstep>
  <scstep>
   <time name="diag">    0.59    0.59</time>
   <time name="diis">    2.48    2.49</time>
   <time name="orth">    0.09    0.09</time>
   <time name="total">    3.36    3.38</time>
   <dipole>
    <v name="dipole">      0.00000000       0.00000000      -0.13088355 </v>
    <i name="Tr[quadrupol]">  -4989.42704351 </i>
    <i name="Echarged">      0.00000000 </i>
    <i name="Edipol_quadrupol">      0.00000000 </i>
    <i name="Eion">      0.00000000 </i>
   </dipole>
   <energy>
    <i name="e_fr_energy">   -118.22085259 </i>
    <i name="e_wo_entrp">   -118.20248232 </i>
    <i name="e_0_energy">   -118.21472916 </i>
   </energy>
  </scstep>
  <scstep>
   <time name="diag">    0.59    0.59</time>
   <time name="diis">    2.49    2.50</time>
   <time name="orth">    0.08    0.08</time>
   <time name="total">    3.37    3.38</time>
   <dipole>
    <v name="dipole">      0.00000000       0.00000000       0.00444895 </v>
    <i name="Tr[quadrupol]">  -4986.25357882 </i>
    <i name="Echarged">      0.00000000 </i>
    <i name="Edipol_quadrupol">      0.00000000 </i>
    <i name="Eion">      0.00000000 </i>
   </dipole>
   <energy>
    <i name="e_fr_energy">   -115.17105355 </i>
    <i name="e_wo_entrp">   -115.15142754 </i>
    <i name="e_0_energy">   -115.16451155 </i>
   </energy>
  </scstep>
  <scstep>
   <time name="diag">    0.58    0.59</time>
   <time name="diis">    2.47    2.48</time>
   <time name="orth">    0.09    0.09</time>
   <time name="total">    3.35    3.36</time>
   <dipole>
    <v name="dipole">      0.00000000       0.00000000       0.11343251 </v>
    <i name="Tr[quadrupol]">  -4986.42912971 </i>
    <i name="Echarged">      0.00000000 </i>
    <i name="Edipol_quadrupol">      0.00000000 </i>
    <i name="Eion">      0.00000000 </i>
   </dipole>
   <energy>
    <i name="e_fr_energy">   -115.24939772 </i>
    <i name="e_wo_entrp">   -115.23338459 </i>
    <i name="e_0_energy">   -115.24406001 </i>
   </energy>
  </scstep>
  <scstep>
   <time name="diag">    0.58    0.59</time>
   <time name="diis">    2.45    2.47</time>
   <time name="orth">    0.09    0.09</time>
   <time name="total">    3.34    3.35</time>
   <dipole>
    <v name="dipole">      0.00000000       0.00000000       0.12007392 </v>
    <i name="Tr[quadrupol]">  -4987.59974549 </i>
    <i name="Echarged">      0.00000000 </i>
    <i name="Edipol_quadrupol">      0.00000000 </i>
    <i name="Eion">      0.00000000 </i>
   </dipole>
   <energy>
    <i name="e_fr_energy">   -115.09164824 </i>
    <i name="e_wo_entrp">   -115.08491045 </i>
    <i name="e_0_energy">   -115.08940231 </i>
   </energy>
  </scstep>
  <scstep>
   <time name="diag">    0.59    0.59</time>
   <time name="diis">    2.38    2.39</time>
   <time name="orth">    0.09    0.09</time>
   <time name="total">    3.27    3.28</time>
   <dipole>
    <v name="dipole">      0.00000000       0.00000000       0.11298381 </v>
    <i name="Tr[quadrupol]">  -4987.31659219 </i>
    <i name="Echarged">      0.00000000 </i>
    <i name="Edipol_quadrupol">      0.00000000 </i>
    <i name="Eion">      0.00000000 </i>
   </dipole>
   <energy>
    <i name="e_fr_energy">   -115.01586782 </i>
    <i name="e_wo_entrp">   -115.00533848 </i>
    <i name="e_0_energy">   -115.01235804 </i>
   </energy>
  </scstep>
  <scstep>
   <time name="diag">    0.58    0.59</time>
   <time name="diis">    2.44    2.45</time>
   <time name="orth">    0.09    0.09</time>
   <time name="total">    3.32    3.33</time>
   <dipole>
    <v name="dipole">      0.00000000       0.00000000       0.11771910 </v>
    <i name="Tr[quadrupol]">  -4987.05427515 </i>
    <i name="Echarged">      0.00000000 </i>
    <i name="Edipol_quadrupol">      0.00000000 </i>
    <i name="Eion">      0.00000000 </i>
   </dipole>
   <energy>
    <i name="e_fr_energy">   -114.94326264 </i>
    <i name="e_wo_entrp">   -114.92036964 </i>
    <i name="e_0_energy">   -114.93563164 </i>
   </energy>
  </scstep>
  <scstep>
   <time name="diag">    0.58    0.59</time>
   <time name="diis">    2.53    2.55</time>
   <time name="orth">    0.09    0.09</time>
   <time name="total">    3.42    3.43</time>
   <dipole>
    <v name="dipole">      0.00000000       0.00000000       0.12712330 </v>
    <i name="Tr[quadrupol]">  -4987.01719259 </i>
    <i name="Echarged">      0.00000000 </i>
    <i name="Edipol_quadrupol">      0.00000000 </i>
    <i name="Eion">      0.00000000 </i>
   </dipole>
   <energy>
    <i name="e_fr_energy">   -114.93504370 </i>
    <i name="e_wo_entrp">   -114.90699845 </i>
    <i name="e_0_energy">   -114.92569528 </i>
   </energy>
  </scstep>
  <scstep>
   <time name="diag">    0.59    0.59</time>
   <time name="diis">    2.46    2.47</time>
   <time name="orth">    0.09    0.09</time>
   <time name="total">    3.34    3.35</time>
   <dipole>
    <v name="dipole">      0.00000000       0.00000000       0.12253124 </v>
    <i name="Tr[quadrupol]">  -4987.07297321 </i>
    <i name="Echarged">      0.00000000 </i>
    <i name="Edipol_quadrupol">      0.00000000 </i>
    <i name="Eion">      0.00000000 </i>
   </dipole>
   <energy>
    <i name="e_fr_energy">   -114.93742404 </i>
    <i name="e_wo_entrp">   -114.91073181 </i>
    <i name="e_0_energy">   -114.92852663 </i>
   </energy>
  </scstep>
  <scstep>
   <time name="diag">    0.58    0.61</time>
   <time name="diis">    2.46    2.47</time>
   <time name="orth">    0.09    0.09</time>
   <time name="total">    3.34    3.38</time>
   <dipole>
    <v name="dipole">      0.00000000       0.00000000       0.12499262 </v>
    <i name="Tr[quadrupol]">  -4987.07605522 </i>
    <i name="Echarged">      0.00000000 </i>
    <i name="Edipol_quadrupol">      0.00000000 </i>
    <i name="Eion">      0.00000000 </i>
   </dipole>
   <energy>
    <i name="e_fr_energy">   -114.93778254 </i>
    <i name="e_wo_entrp">   -114.90956442 </i>
    <i name="e_0_energy">   -114.92837650 </i>
   </energy>
  </scstep>
  <scstep>
   <time name="diag">    0.58    0.59</time>
   <time name="diis">    1.78    1.78</time>
   <time name="orth">    0.09    0.09</time>
   <time name="total">    2.66    2.67</time>
   <dipole>
    <v name="dipole">      0.00000000       0.00000000       0.12695800 </v>
    <i name="Tr[quadrupol]">  -4987.09367957 </i>
    <i name="Echarged">      0.00000000 </i>
    <i name="Edipol_quadrupol">      0.00000000 </i>
    <i name="Eion">      0.00000000 </i>
   </dipole>
   <energy>
    <i name="e_fr_energy">   -114.93797444 </i>
    <i name="e_wo_entrp">   -114.90977556 </i>
    <i name="e_0_energy">   -114.92857481 </i>
   </energy>
  </scstep>
  <scstep>
   <time name="diag">    0.58    0.59</time>
   <time name="diis">    1.68    1.69</time>
   <time name="orth">    0.08    0.08</time>
   <time name="total">    2.56    2.57</time>
   <dipole>
    <v name="dipole">      0.00000000       0.00000000       0.12235976 </v>
    <i name="Tr[quadrupol]">  -4986.90792152 </i>
    <i name="Echarged">      0.00000000 </i>
    <i name="Edipol_quadrupol">      0.00000000 </i>
    <i name="Eion">      0.00000000 </i>
   </dipole>
   <energy>
    <i name="e_fr_energy">   -114.93856760 </i>
    <i name="e_wo_entrp">   -114.91054964 </i>
    <i name="e_0_energy">   -114.92922828 </i>
   </energy>
  </scstep>
  <scstep>
   <time name="diag">    0.58    0.59</time>
   <time name="diis">    1.58    1.59</time>
   <time name="orth">    0.09    0.09</time>
   <time name="total">    2.47    2.48</time>
   <dipole>
    <v name="dipole">      0.00000000       0.00000000       0.12632770 </v>
    <i name="Tr[quadrupol]">  -4986.83246805 </i>
    <i name="Echarged">      0.00000000 </i>
    <i name="Edipol_quadrupol">      0.00000000 </i>
    <i name="Eion">      0.00000000 </i>
   </dipole>
   <energy>
    <i name="e_fr_energy">   -114.93873461 </i>
    <i name="e_wo_entrp">   -114.91063461 </i>
    <i name="e_0_energy">   -114.92936795 </i>
   </energy>
  </scstep>
  <scstep>
   <time name="diag">    0.59    0.59</time>
   <time name="diis">    1.42    1.43</time>
   <time name="orth">    0.09    0.09</time>
   <time name="total">    2.30    2.31</time>
   <dipole>
    <v name="dipole">      0.00000000       0.00000000       0.12872525 </v>
    <i name="Tr[quadrupol]">  -4986.78664722 </i>
    <i name="Echarged">      0.00000000 </i>
    <i name="Edipol_quadrupol">      0.00000000 </i>
    <i name="Eion">      0.00000000 </i>
   </dipole>
   <energy>
    <i name="e_fr_energy">   -114.93885362 </i>
    <i name="e_wo_entrp">   -114.91077179 </i>
    <i name="e_0_energy">   -114.92949301 </i>
   </energy>
  </scstep>
  <scstep>
   <time name="diag">    0.58    0.59</time>
   <time name="diis">    1.02    1.03</time>
   <time name="orth">    0.09    0.09</time>
   <time name="total">    1.75    1.76</time>
   <dipole>
    <v name="dipole">      0.00000000       0.00000000       0.12916340 </v>
    <i name="Tr[quadrupol]">  -4986.76185063 </i>
    <i name="Echarged">      0.00000000 </i>
    <i name="Edipol_quadrupol">      0.00000000 </i>
    <i name="Eion">      0.00000000 </i>
   </dipole>
   <energy>
    <i name="alphaZ">    990.78922428 </i>
    <i name="ewald"> 112746.20483039 </i>
    <i name="hartreedc">-147574.45822700 </i>
    <i name="XCdc">    561.03836018 </i>
    <i name="pawpsdc">  36783.84409095 </i>
    <i name="pawaedc"> -36035.90396868 </i>
    <i name="eentropy">     -0.02801756 </i>
    <i name="bandstr">  -1357.58705161 </i>
    <i name="atom">  33771.16187166 </i>
    <i name="e_fr_energy">   -114.93888741 </i>
    <i name="e_wo_entrp">   -114.91086985 </i>
    <i name="e_0_energy">   -114.92954822 </i>
   </energy>
  </scstep>
  <structure>
   <crystal>
    <varray name="basis" >
     <v>       8.80347943       0.00000000       0.00000000 </v>
     <v>       4.40173971       7.62403682       0.00000000 </v>
     <v>       0.00000000       0.00000000      23.18801085 </v>
    </varray>
    <i name="volume">   1556.33410245 </i>
    <varray name="rec_basis" >
     <v>       0.11359145      -0.06558205       0.00000000 </v>
     <v>       0.00000000       0.13116411       0.00000000 </v>
     <v>       0.00000000       0.00000000       0.04312573 </v>
    </varray>
   </crystal>
   <varray name="positions" >
    <v>       0.00000000       0.00000000       0.00000000 </v>
    <v>       0.33333333       0.00000000       0.00000000 </v>
    <v>       0.66666667       0.00000000       0.00000000 </v>
    <v>       0.00000000       0.33333333       0.00000000 </v>
    <v>       0.33333333       0.33333333       0.00000000 </v>
    <v>       0.66666667       0.33333333       0.00000000 </v>
    <v>       0.00000000       0.66666667       0.00000000 </v>
    <v>       0.33333333       0.66666667       0.00000000 </v>
    <v>       0.66666667       0.66666667       0.00000000 </v>
    <v>       0.11111111       0.11111111       0.10332942 </v>
    <v>       0.44444444       0.11111111       0.10332942 </v>
    <v>       0.77777778       0.11111111       0.10332942 </v>
    <v>       0.11111111       0.44444444       0.10332942 </v>
    <v>       0.44444444       0.44444444       0.10332942 </v>
    <v>       0.77777778       0.44444444       0.10332942 </v>
    <v>       0.11111111       0.77777778       0.10332942 </v>
    <v>       0.44444444       0.77777778       0.10332942 </v>
    <v>       0.77777778       0.77777778       0.10332942 </v>
    <v>       0.88885723       0.22399937       0.20681300 </v>
    <v>       0.22009262       0.22238645       0.20889991 </v>
    <v>       0.55099200       0.22256454       0.20670927 </v>
    <v>       0.89012997       0.55284336       0.20651472 </v>
    <v>       0.22073968       0.55281617       0.20672335 </v>
    <v>       0.55334418       0.55509297       0.20420892 </v>
    <v>       0.88770315       0.88936220       0.20444857 </v>
    <v>       0.22199358       0.89084331       0.20674799 </v>
    <v>       0.55094328       0.89208431       0.20643552 </v>
    <v>       0.99664060       0.99973241       0.30776886 </v>
    <v>       0.34802247       0.97887004       0.31496685 </v>
    <v>       0.67056360       0.99910136       0.30920008 </v>
    <v>       0.97477050       0.35147271       0.31551420 </v>
    <v>       0.33272173       0.33637376       0.31564339 </v>
    <v>       0.65916567       0.33496847       0.30892298 </v>
    <v>       0.99596028       0.67359511       0.30924773 </v>
    <v>       0.33175845       0.66260697       0.30889636 </v>
    <v>       0.66190665       0.66536369       0.30663706 </v>
    <v>       0.20466707       0.20785874       0.36570949 </v>
   </varray>
  </structure>
  <varray name="forces" >
   <v>      -0.01593837      -0.00969987      -0.07811833 </v>
   <v>       0.00072984       0.01905761      -0.07820863 </v>
   <v>       0.02177700      -0.01061699      -0.08784830 </v>
   <v>       0.01559994      -0.00953829      -0.07790174 </v>
   <v>      -0.01430523      -0.00958580      -0.06042979 </v>
   <v>       0.00727242      -0.01367275      -0.04945073 </v>
   <v>       0.00204230       0.02449193      -0.08525985 </v>
   <v>      -0.00867003       0.01256283      -0.04925702 </v>
   <v>       0.00999866       0.00508902      -0.05285211 </v>
   <v>       0.01124800       0.01255364       0.12092018 </v>
   <v>      -0.00903392       0.01043288       0.10045134 </v>
   <v>      -0.01143489       0.07211606       0.08394976 </v>
   <v>      -0.00061536      -0.00843713       0.10484552 </v>
   <v>      -0.03214932      -0.01425717      -0.00851928 </v>
   <v>       0.00719905      -0.01009092      -0.01019095 </v>
   <v>       0.05276849      -0.03986219       0.08482826 </v>
   <v>      -0.00876178       0.01796735      -0.01475141 </v>
   <v>      -0.06133843      -0.03067124       0.09842062 </v>
   <v>       0.00089133      -0.00828052      -0.00217621 </v>
   <v>      -0.00800392      -0.00638293       0.01455466 </v>
   <v>      -0.01621446       0.01350841       0.01419481 </v>
   <v>      -0.01246774       0.00337051      -0.00458398 </v>
   <v>       0.00329521      -0.02175948       0.01599639 </v>
   <v>      -0.00498154      -0.00387348       0.00017320 </v>
   <v>      -0.00507774      -0.00334157       0.00022928 </v>
   <v>      -0.00538505      -0.00011156      -0.00111945 </v>
   <v>       0.00049793      -0.01467551      -0.00688228 </v>
   <v>      -0.02323979      -0.01590356      -0.00191709 </v>
   <v>      -0.05278406      -0.05091488       0.02303086 </v>
   <v>      -0.01511019      -0.00708519      -0.01187036 </v>
   <v>      -0.06610300      -0.02170489       0.01744083 </v>
   <v>       0.00395858      -0.00032344       0.07836613 </v>
   <v>      -0.02585061      -0.00263244      -0.01016826 </v>
   <v>      -0.01491113      -0.01193859      -0.01193379 </v>
   <v>      -0.01596239      -0.02621760      -0.00975240 </v>
   <v>      -0.02283676      -0.01902120       0.01393670 </v>
   <v>       0.31389698       0.17944894      -0.05814658 </v>
  </varray>
  <varray name="stress" >
   <v>     -17.44696706      -0.72932687       0.61734227 </v>
   <v>      -0.72932687     -16.57712306       0.24732395 </v>
   <v>       0.61734222       0.24732404       0.28745599 </v>
  </varray>
  <energy>
   <i name="e_fr_energy">   -114.93888741 </i>
   <i name="e_wo_entrp">   -114.91086985 </i>
   <i name="e_0_energy">   -114.92954822 </i>
  </energy>
  <time name="totalsc">   75.48   75.89</time>
  <eigenvalues>
   <array>
    <dimension dim="1">band</dimension>
    <dimension dim="2">kpoint</dimension>
    <dimension dim="3">spin</dimension>
    <field>eigene</field>
    <field>occ</field>
    <set>
     <set comment="spin 1">
      <set comment="kpoint 1">
       <r>  -17.0997    1.0000 </r>
       <r>   -8.2253    1.0000 </r>
       <r>   -7.0854    1.0000 </r>
       <r>   -6.8745    1.0000 </r>
       <r>   -6.3967    1.0000 </r>
       <r>   -6.3815    1.0000 </r>
       <r>   -6.1358    1.0000 </r>
       <r>   -6.0979    1.0000 </r>
       <r>   -6.0853    1.0000 </r>
       <r>   -6.0092    1.0000 </r>
       <r>   -6.0044    1.0000 </r>
       <r>   -5.9760    1.0000 </r>
       <r>   -5.8533    1.0000 </r>
       <r>   -5.8005    1.0000 </r>
       <r>   -5.6930    1.0000 </r>
       <r>   -5.6766    1.0000 </r>
       <r>   -5.6567    1.0000 </r>
       <r>   -5.5315    1.0000 </r>
       <r>   -5.4693    1.0000 </r>
       <r>   -5.4130    1.0000 </r>
       <r>   -5.3965    1.0000 </r>
       <r>   -5.3723    1.0000 </r>
       <r>   -5.3676    1.0000 </r>
       <r>   -5.2895    1.0000 </r>
       <r>   -5.2847    1.0000 </r>
       <r>   -5.2781    1.0000 </r>
       <r>   -5.2647    1.0000 </r>
       <r>   -5.2541    1.0000 </r>
       <r>   -5.2357    1.0000 </r>
       <r>   -5.2278    1.0000 </r>
       <r>   -5.2008    1.0000 </r>
       <r>   -5.1170    1.0000 </r>
       <r>   -5.0815    1.0000 </r>
       <r>   -5.0477    1.0000 </r>
       <r>   -5.0258    1.0000 </r>
       <r>   -4.9928    1.0000 </r>
       <r>   -4.9290    1.0000 </r>
       <r>   -4.8957    1.0000 </r>
       <r>   -4.8729    1.0000 </r>
       <r>   -4.8477    1.0000 </r>
       <r>   -4.8243    1.0000 </r>
       <r>   -4.7609    1.0000 </r>
       <r>   -4.7233    1.0000 </r>
       <r>   -4.6730    1.0000 </r>
       <r>   -4.6321    1.0000 </r>
       <r>   -4.6181    1.0000 </r>
       <r>   -4.6010    1.0000 </r>
       <r>   -4.5831    1.0000 </r>
       <r>   -4.4717    1.0000 </r>
       <r>   -4.4410    1.0000 </r>
       <r>   -4.3975    1.0000 </r>
       <r>   -4.3828    1.0000 </r>
       <r>   -4.3708    1.0000 </r>
       <r>   -4.3647    1.0000 </r>
       <r>   -4.3296    1.0000 </r>
       <r>   -4.2865    1.0000 </r>
       <r>   -4.2327    1.0000 </r>
       <r>   -4.1773    1.0000 </r>
       <r>   -4.1678    1.0000 </r>
       <r>   -4.1358    1.0000 </r>
       <r>   -4.1055    1.0000 </r>
       <r>   -4.0724    1.0000 </r>
       <r>   -4.0644    1.0000 </r>
       <r>   -4.0377    1.0000 </r>
       <r>   -4.0069    1.0000 </r>
       <r>   -3.9711    1.0000 </r>
       <r>   -3.9577    1.0000 </r>
       <r>   -3.9334    1.0000 </r>
       <r>   -3.9176    1.0000 </r>
       <r>   -3.9085    1.0000 </r>
       <r>   -3.8458    1.0000 </r>
       <r>   -3.8147    1.0000 </r>
       <r>   -3.7929    1.0000 </r>
       <r>   -3.7750    1.0000 </r>
       <r>   -3.7613    1.0000 </r>
       <r>   -3.7497    1.0000 </r>
       <r>   -3.7395    1.0000 </r>
       <r>   -3.7080    1.0000 </r>
       <r>   -3.6770    1.0000 </r>
       <r>   -3.6632    1.0000 </r>
       <r>   -3.6523    1.0000 </r>
       <r>   -3.6464    1.0000 </r>
       <r>   -3.6359    1.0000 </r>
       <r>   -3.6112    1.0000 </r>
       <r>   -3.5994    1.0000 </r>
       <r>   -3.5823    1.0000 </r>
       <r>   -3.5565    1.0000 </r>
       <r>   -3.5298    1.0000 </r>
       <r>   -3.5073    1.0000 </r>
       <r>   -3.5010    1.0000 </r>
       <r>   -3.4884    1.0000 </r>
       <r>   -3.4817    1.0000 </r>
       <r>   -3.4484    1.0000 </r>
       <r>   -3.4364    1.0000 </r>
       <r>   -3.3954    1.0000 </r>
       <r>   -3.3894    1.0000 </r>
       <r>   -3.3576    1.0000 </r>
       <r>   -3.3487    1.0000 </r>
       <r>   -3.3454    1.0000 </r>
       <r>   -3.3222    1.0000 </r>
       <r>   -3.2544    1.0000 </r>
       <r>   -3.2339    1.0000 </r>
       <r>   -3.2144    1.0000 </r>
       <r>   -3.2051    1.0000 </r>
       <r>   -3.1676    1.0000 </r>
       <r>   -3.1533    1.0000 </r>
       <r>   -3.1418    1.0000 </r>
       <r>   -3.1328    1.0000 </r>
       <r>   -3.1088    1.0000 </r>
       <r>   -3.0842    1.0000 </r>
       <r>   -3.0263    1.0000 </r>
       <r>   -3.0226    1.0000 </r>
       <r>   -2.9668    1.0000 </r>
       <r>   -2.9613    1.0000 </r>
       <r>   -2.9500    1.0000 </r>
       <r>   -2.8785    1.0000 </r>
       <r>   -2.8630    1.0000 </r>
       <r>   -2.8396    1.0000 </r>
       <r>   -2.8243    1.0000 </r>
       <r>   -2.8027    1.0000 </r>
       <r>   -2.7991    1.0000 </r>
       <r>   -2.7745    1.0000 </r>
       <r>   -2.7630    1.0000 </r>
       <r>   -2.7348    1.0000 </r>
       <r>   -2.7102    1.0000 </r>
       <r>   -2.6632    1.0000 </r>
       <r>   -2.6575    1.0000 </r>
       <r>   -2.6126    1.0000 </r>
       <r>   -2.5866    1.0000 </r>
       <r>   -2.5816    1.0000 </r>
       <r>   -2.5282    1.0000 </r>
       <r>   -2.5054    1.0000 </r>
       <r>   -2.4924    1.0000 </r>
       <r>   -2.4290    1.0000 </r>
       <r>   -2.4113    1.0000 </r>
       <r>   -2.3920    1.0000 </r>
       <r>   -2.3795    1.0000 </r>
       <r>   -2.3408    1.0000 </r>
       <r>   -2.3354    1.0000 </r>
       <r>   -2.3040    1.0000 </r>
       <r>   -2.2644    1.0000 </r>
       <r>   -2.2469    1.0000 </r>
       <r>   -2.2419    1.0000 </r>
       <r>   -2.2174    1.0000 </r>
       <r>   -2.1914    1.0000 </r>
       <r>   -2.1557    1.0000 </r>
       <r>   -2.1264    1.0000 </r>
       <r>   -2.1008    1.0000 </r>
       <r>   -2.0901    1.0000 </r>
       <r>   -2.0633    1.0000 </r>
       <r>   -2.0622    1.0000 </r>
       <r>   -2.0293    1.0000 </r>
       <r>   -2.0121    1.0000 </r>
       <r>   -2.0074    1.0000 </r>
       <r>   -1.9873    1.0000 </r>
       <r>   -1.9728    1.0000 </r>
       <r>   -1.9680    1.0000 </r>
       <r>   -1.9466    1.0000 </r>
       <r>   -1.9222    1.0000 </r>
       <r>   -1.9044    1.0000 </r>
       <r>   -1.8313    1.0000 </r>
       <r>   -1.8301    1.0000 </r>
       <r>   -1.7929    1.0000 </r>
       <r>   -1.7404    1.0000 </r>
       <r>   -1.7299    1.0000 </r>
       <r>   -1.6999    1.0000 </r>
       <r>   -1.6901    1.0000 </r>
       <r>   -1.6743    1.0000 </r>
       <r>   -1.6648    1.0000 </r>
       <r>   -1.6526    1.0000 </r>
       <r>   -1.6506    1.0000 </r>
       <r>   -1.6382    1.0000 </r>
       <r>   -1.6318    1.0000 </r>
       <r>   -1.5964    1.0000 </r>
       <r>   -1.5730    1.0000 </r>
       <r>   -1.5684    1.0000 </r>
       <r>   -1.5596    1.0000 </r>
       <r>   -1.5458    1.0000 </r>
       <r>   -1.5419    1.0000 </r>
       <r>   -1.5236    1.0000 </r>
       <r>   -1.4979    1.0000 </r>
       <r>   -1.4924    1.0000 </r>
       <r>   -1.4559    1.0000 </r>
       <r>   -1.4251    1.0000 </r>
       <r>   -1.4170    1.0000 </r>
       <r>   -1.3938    1.0000 </r>
       <r>   -1.3666    1.0000 </r>
       <r>   -1.3595    1.0000 </r>
       <r>   -1.2648    1.0000 </r>
       <r>   -1.2152    1.0000 </r>
       <r>   -1.0837    1.0000 </r>
       <r>   -0.9520    1.0000 </r>
       <r>   -0.9174    1.0000 </r>
       <r>   -0.8715    1.0000 </r>
       <r>   -0.7325    1.0000 </r>
       <r>   -0.6906    1.0000 </r>
       <r>   -0.5449    1.0000 </r>
       <r>   -0.5357    1.0000 </r>
       <r>   -0.4083    1.0000 </r>
       <r>   -0.2146    1.0000 </r>
       <r>    0.0310    1.0000 </r>
       <r>    0.0828    1.0000 </r>
       <r>    0.4268    0.5514 </r>
       <r>    0.7945   -0.0000 </r>
       <r>    0.9353   -0.0000 </r>
       <r>    1.2660   -0.0000 </r>
       <r>    1.3702   -0.0000 </r>
       <r>    1.5980   -0.0000 </r>
       <r>    1.7757   -0.0000 </r>
       <r>    1.8293   -0.0000 </r>
       <r>    1.8851   -0.0000 </r>
       <r>    2.1305   -0.0000 </r>
       <r>    2.7002    0.0000 </r>
       <r>    2.8809    0.0000 </r>
       <r>    2.8843    0.0000 </r>
       <r>    3.0599    0.0000 </r>
       <r>    3.5102    0.0000 </r>
       <r>    3.5428    0.0000 </r>
       <r>    3.5629    0.0000 </r>
       <r>    3.9346    0.0000 </r>
       <r>    4.0447    0.0000 </r>
       <r>    4.0609    0.0000 </r>
       <r>    4.3062    0.0000 </r>
       <r>    4.5177    0.0000 </r>
       <r>    4.5453    0.0000 </r>
       <r>    4.8254    0.0000 </r>
       <r>    4.8722    0.0000 </r>
       <r>    5.0568    0.0000 </r>
       <r>    5.1741    0.0000 </r>
       <r>    5.2008    0.0000 </r>
       <r>    5.2848    0.0000 </r>
       <r>    5.5492    0.0000 </r>
       <r>    5.5973    0.0000 </r>
       <r>    5.7082    0.0000 </r>
       <r>    5.8360    0.0000 </r>
       <r>    5.9461    0.0000 </r>
       <r>    6.0804    0.0000 </r>
       <r>    6.1653    0.0000 </r>
       <r>    6.5392    0.0000 </r>
       <r>    6.6180    0.0000 </r>
       <r>    6.7207    0.0000 </r>
       <r>    6.7881    0.0000 </r>
      </set>
      <set comment="kpoint 2">
       <r>  -17.0995    1.0000 </r>
       <r>   -8.2260    1.0000 </r>
       <r>   -7.0904    1.0000 </r>
       <r>   -6.8767    1.0000 </r>
       <r>   -6.3935    1.0000 </r>
       <r>   -6.3795    1.0000 </r>
       <r>   -6.1503    1.0000 </r>
       <r>   -6.1039    1.0000 </r>
       <r>   -6.0894    1.0000 </r>
       <r>   -6.0096    1.0000 </r>
       <r>   -6.0019    1.0000 </r>
       <r>   -5.9707    1.0000 </r>
       <r>   -5.8547    1.0000 </r>
       <r>   -5.7722    1.0000 </r>
       <r>   -5.7064    1.0000 </r>
       <r>   -5.6722    1.0000 </r>
       <r>   -5.6577    1.0000 </r>
       <r>   -5.5319    1.0000 </r>
       <r>   -5.4676    1.0000 </r>
       <r>   -5.4025    1.0000 </r>
       <r>   -5.3987    1.0000 </r>
       <r>   -5.3865    1.0000 </r>
       <r>   -5.3515    1.0000 </r>
       <r>   -5.2986    1.0000 </r>
       <r>   -5.2852    1.0000 </r>
       <r>   -5.2762    1.0000 </r>
       <r>   -5.2639    1.0000 </r>
       <r>   -5.2534    1.0000 </r>
       <r>   -5.2454    1.0000 </r>
       <r>   -5.2206    1.0000 </r>
       <r>   -5.1951    1.0000 </r>
       <r>   -5.1223    1.0000 </r>
       <r>   -5.0777    1.0000 </r>
       <r>   -5.0457    1.0000 </r>
       <r>   -5.0168    1.0000 </r>
       <r>   -5.0013    1.0000 </r>
       <r>   -4.9098    1.0000 </r>
       <r>   -4.9044    1.0000 </r>
       <r>   -4.8759    1.0000 </r>
       <r>   -4.8504    1.0000 </r>
       <r>   -4.8164    1.0000 </r>
       <r>   -4.7383    1.0000 </r>
       <r>   -4.7193    1.0000 </r>
       <r>   -4.6856    1.0000 </r>
       <r>   -4.6628    1.0000 </r>
       <r>   -4.6195    1.0000 </r>
       <r>   -4.5973    1.0000 </r>
       <r>   -4.5669    1.0000 </r>
       <r>   -4.4953    1.0000 </r>
       <r>   -4.4494    1.0000 </r>
       <r>   -4.4297    1.0000 </r>
       <r>   -4.4025    1.0000 </r>
       <r>   -4.3743    1.0000 </r>
       <r>   -4.3412    1.0000 </r>
       <r>   -4.3284    1.0000 </r>
       <r>   -4.2655    1.0000 </r>
       <r>   -4.2167    1.0000 </r>
       <r>   -4.1790    1.0000 </r>
       <r>   -4.1680    1.0000 </r>
       <r>   -4.1189    1.0000 </r>
       <r>   -4.0954    1.0000 </r>
       <r>   -4.0768    1.0000 </r>
       <r>   -4.0660    1.0000 </r>
       <r>   -4.0361    1.0000 </r>
       <r>   -4.0125    1.0000 </r>
       <r>   -3.9767    1.0000 </r>
       <r>   -3.9686    1.0000 </r>
       <r>   -3.9363    1.0000 </r>
       <r>   -3.9295    1.0000 </r>
       <r>   -3.8798    1.0000 </r>
       <r>   -3.8491    1.0000 </r>
       <r>   -3.8158    1.0000 </r>
       <r>   -3.8035    1.0000 </r>
       <r>   -3.7864    1.0000 </r>
       <r>   -3.7724    1.0000 </r>
       <r>   -3.7602    1.0000 </r>
       <r>   -3.7236    1.0000 </r>
       <r>   -3.7094    1.0000 </r>
       <r>   -3.6761    1.0000 </r>
       <r>   -3.6619    1.0000 </r>
       <r>   -3.6541    1.0000 </r>
       <r>   -3.6436    1.0000 </r>
       <r>   -3.6341    1.0000 </r>
       <r>   -3.6122    1.0000 </r>
       <r>   -3.6002    1.0000 </r>
       <r>   -3.5747    1.0000 </r>
       <r>   -3.5609    1.0000 </r>
       <r>   -3.5371    1.0000 </r>
       <r>   -3.5094    1.0000 </r>
       <r>   -3.4986    1.0000 </r>
       <r>   -3.4912    1.0000 </r>
       <r>   -3.4705    1.0000 </r>
       <r>   -3.4536    1.0000 </r>
       <r>   -3.4307    1.0000 </r>
       <r>   -3.4231    1.0000 </r>
       <r>   -3.4009    1.0000 </r>
       <r>   -3.3791    1.0000 </r>
       <r>   -3.3498    1.0000 </r>
       <r>   -3.3421    1.0000 </r>
       <r>   -3.3168    1.0000 </r>
       <r>   -3.2875    1.0000 </r>
       <r>   -3.2363    1.0000 </r>
       <r>   -3.2169    1.0000 </r>
       <r>   -3.1811    1.0000 </r>
       <r>   -3.1684    1.0000 </r>
       <r>   -3.1571    1.0000 </r>
       <r>   -3.1383    1.0000 </r>
       <r>   -3.1265    1.0000 </r>
       <r>   -3.1069    1.0000 </r>
       <r>   -3.0837    1.0000 </r>
       <r>   -3.0435    1.0000 </r>
       <r>   -2.9793    1.0000 </r>
       <r>   -2.9697    1.0000 </r>
       <r>   -2.9490    1.0000 </r>
       <r>   -2.9412    1.0000 </r>
       <r>   -2.9038    1.0000 </r>
       <r>   -2.8589    1.0000 </r>
       <r>   -2.8275    1.0000 </r>
       <r>   -2.8197    1.0000 </r>
       <r>   -2.8085    1.0000 </r>
       <r>   -2.7914    1.0000 </r>
       <r>   -2.7681    1.0000 </r>
       <r>   -2.7596    1.0000 </r>
       <r>   -2.7133    1.0000 </r>
       <r>   -2.6893    1.0000 </r>
       <r>   -2.6618    1.0000 </r>
       <r>   -2.6455    1.0000 </r>
       <r>   -2.6192    1.0000 </r>
       <r>   -2.5968    1.0000 </r>
       <r>   -2.5743    1.0000 </r>
       <r>   -2.5376    1.0000 </r>
       <r>   -2.5129    1.0000 </r>
       <r>   -2.4809    1.0000 </r>
       <r>   -2.4333    1.0000 </r>
       <r>   -2.4138    1.0000 </r>
       <r>   -2.3880    1.0000 </r>
       <r>   -2.3789    1.0000 </r>
       <r>   -2.3385    1.0000 </r>
       <r>   -2.3285    1.0000 </r>
       <r>   -2.3119    1.0000 </r>
       <r>   -2.2664    1.0000 </r>
       <r>   -2.2501    1.0000 </r>
       <r>   -2.2324    1.0000 </r>
       <r>   -2.2149    1.0000 </r>
       <r>   -2.1802    1.0000 </r>
       <r>   -2.1576    1.0000 </r>
       <r>   -2.1342    1.0000 </r>
       <r>   -2.1056    1.0000 </r>
       <r>   -2.0811    1.0000 </r>
       <r>   -2.0573    1.0000 </r>
       <r>   -2.0390    1.0000 </r>
       <r>   -2.0269    1.0000 </r>
       <r>   -2.0181    1.0000 </r>
       <r>   -2.0055    1.0000 </r>
       <r>   -1.9853    1.0000 </r>
       <r>   -1.9762    1.0000 </r>
       <r>   -1.9672    1.0000 </r>
       <r>   -1.9338    1.0000 </r>
       <r>   -1.9122    1.0000 </r>
       <r>   -1.8720    1.0000 </r>
       <r>   -1.8381    1.0000 </r>
       <r>   -1.8285    1.0000 </r>
       <r>   -1.7916    1.0000 </r>
       <r>   -1.7333    1.0000 </r>
       <r>   -1.7132    1.0000 </r>
       <r>   -1.7028    1.0000 </r>
       <r>   -1.6898    1.0000 </r>
       <r>   -1.6724    1.0000 </r>
       <r>   -1.6643    1.0000 </r>
       <r>   -1.6520    1.0000 </r>
       <r>   -1.6471    1.0000 </r>
       <r>   -1.6360    1.0000 </r>
       <r>   -1.6347    1.0000 </r>
       <r>   -1.5977    1.0000 </r>
       <r>   -1.5765    1.0000 </r>
       <r>   -1.5714    1.0000 </r>
       <r>   -1.5633    1.0000 </r>
       <r>   -1.5484    1.0000 </r>
       <r>   -1.5385    1.0000 </r>
       <r>   -1.5212    1.0000 </r>
       <r>   -1.5048    1.0000 </r>
       <r>   -1.4938    1.0000 </r>
       <r>   -1.4515    1.0000 </r>
       <r>   -1.4213    1.0000 </r>
       <r>   -1.4066    1.0000 </r>
       <r>   -1.3959    1.0000 </r>
       <r>   -1.3646    1.0000 </r>
       <r>   -1.3519    1.0000 </r>
       <r>   -1.2901    1.0000 </r>
       <r>   -1.2246    1.0000 </r>
       <r>   -1.1029    1.0000 </r>
       <r>   -0.9601    1.0000 </r>
       <r>   -0.9114    1.0000 </r>
       <r>   -0.9031    1.0000 </r>
       <r>   -0.7741    1.0000 </r>
       <r>   -0.7342    1.0000 </r>
       <r>   -0.5107    1.0000 </r>
       <r>   -0.4793    1.0000 </r>
       <r>   -0.4087    1.0000 </r>
       <r>   -0.2361    1.0000 </r>
       <r>   -0.0230    1.0000 </r>
       <r>    0.0685    1.0000 </r>
       <r>    0.4044    0.7308 </r>
       <r>    0.8316   -0.0000 </r>
       <r>    0.9135   -0.0000 </r>
       <r>    1.2718   -0.0000 </r>
       <r>    1.3679   -0.0000 </r>
       <r>    1.5920   -0.0000 </r>
       <r>    1.7623   -0.0000 </r>
       <r>    1.8341   -0.0000 </r>
       <r>    1.8868   -0.0000 </r>
       <r>    2.1483   -0.0000 </r>
       <r>    2.7058    0.0000 </r>
       <r>    2.8771    0.0000 </r>
       <r>    2.9065    0.0000 </r>
       <r>    3.0326    0.0000 </r>
       <r>    3.4396    0.0000 </r>
       <r>    3.5368    0.0000 </r>
       <r>    3.6350    0.0000 </r>
       <r>    3.9239    0.0000 </r>
       <r>    4.0554    0.0000 </r>
       <r>    4.0737    0.0000 </r>
       <r>    4.2651    0.0000 </r>
       <r>    4.5109    0.0000 </r>
       <r>    4.5800    0.0000 </r>
       <r>    4.8159    0.0000 </r>
       <r>    4.8759    0.0000 </r>
       <r>    5.0921    0.0000 </r>
       <r>    5.1748    0.0000 </r>
       <r>    5.2130    0.0000 </r>
       <r>    5.2830    0.0000 </r>
       <r>    5.5608    0.0000 </r>
       <r>    5.6183    0.0000 </r>
       <r>    5.7103    0.0000 </r>
       <r>    5.8598    0.0000 </r>
       <r>    5.9305    0.0000 </r>
       <r>    6.0403    0.0000 </r>
       <r>    6.1651    0.0000 </r>
       <r>    6.5215    0.0000 </r>
       <r>    6.6764    0.0000 </r>
       <r>    6.7636    0.0000 </r>
       <r>    6.8687    0.0000 </r>
      </set>
      <set comment="kpoint 3">
       <r>  -17.0995    1.0000 </r>
       <r>   -8.2261    1.0000 </r>
       <r>   -7.0905    1.0000 </r>
       <r>   -6.8786    1.0000 </r>
       <r>   -6.3905    1.0000 </r>
       <r>   -6.3794    1.0000 </r>
       <r>   -6.1505    1.0000 </r>
       <r>   -6.1043    1.0000 </r>
       <r>   -6.0940    1.0000 </r>
       <r>   -6.0071    1.0000 </r>
       <r>   -5.9995    1.0000 </r>
       <r>   -5.9701    1.0000 </r>
       <r>   -5.8534    1.0000 </r>
       <r>   -5.7735    1.0000 </r>
       <r>   -5.7074    1.0000 </r>
       <r>   -5.6726    1.0000 </r>
       <r>   -5.6600    1.0000 </r>
       <r>   -5.5308    1.0000 </r>
       <r>   -5.4696    1.0000 </r>
       <r>   -5.4022    1.0000 </r>
       <r>   -5.3977    1.0000 </r>
       <r>   -5.3869    1.0000 </r>
       <r>   -5.3500    1.0000 </r>
       <r>   -5.2991    1.0000 </r>
       <r>   -5.2847    1.0000 </r>
       <r>   -5.2763    1.0000 </r>
       <r>   -5.2639    1.0000 </r>
       <r>   -5.2528    1.0000 </r>
       <r>   -5.2450    1.0000 </r>
       <r>   -5.2207    1.0000 </r>
       <r>   -5.1937    1.0000 </r>
       <r>   -5.1249    1.0000 </r>
       <r>   -5.0771    1.0000 </r>
       <r>   -5.0458    1.0000 </r>
       <r>   -5.0174    1.0000 </r>
       <r>   -5.0015    1.0000 </r>
       <r>   -4.9092    1.0000 </r>
       <r>   -4.9049    1.0000 </r>
       <r>   -4.8758    1.0000 </r>
       <r>   -4.8507    1.0000 </r>
       <r>   -4.8125    1.0000 </r>
       <r>   -4.7372    1.0000 </r>
       <r>   -4.7175    1.0000 </r>
       <r>   -4.6851    1.0000 </r>
       <r>   -4.6631    1.0000 </r>
       <r>   -4.6204    1.0000 </r>
       <r>   -4.5980    1.0000 </r>
       <r>   -4.5680    1.0000 </r>
       <r>   -4.4942    1.0000 </r>
       <r>   -4.4479    1.0000 </r>
       <r>   -4.4288    1.0000 </r>
       <r>   -4.4019    1.0000 </r>
       <r>   -4.3752    1.0000 </r>
       <r>   -4.3430    1.0000 </r>
       <r>   -4.3281    1.0000 </r>
       <r>   -4.2649    1.0000 </r>
       <r>   -4.2140    1.0000 </r>
       <r>   -4.1786    1.0000 </r>
       <r>   -4.1699    1.0000 </r>
       <r>   -4.1178    1.0000 </r>
       <r>   -4.0927    1.0000 </r>
       <r>   -4.0723    1.0000 </r>
       <r>   -4.0613    1.0000 </r>
       <r>   -4.0336    1.0000 </r>
       <r>   -4.0129    1.0000 </r>
       <r>   -3.9795    1.0000 </r>
       <r>   -3.9706    1.0000 </r>
       <r>   -3.9364    1.0000 </r>
       <r>   -3.9299    1.0000 </r>
       <r>   -3.8788    1.0000 </r>
       <r>   -3.8534    1.0000 </r>
       <r>   -3.8170    1.0000 </r>
       <r>   -3.8114    1.0000 </r>
       <r>   -3.7903    1.0000 </r>
       <r>   -3.7722    1.0000 </r>
       <r>   -3.7599    1.0000 </r>
       <r>   -3.7248    1.0000 </r>
       <r>   -3.7099    1.0000 </r>
       <r>   -3.6762    1.0000 </r>
       <r>   -3.6611    1.0000 </r>
       <r>   -3.6493    1.0000 </r>
       <r>   -3.6413    1.0000 </r>
       <r>   -3.6321    1.0000 </r>
       <r>   -3.6115    1.0000 </r>
       <r>   -3.5981    1.0000 </r>
       <r>   -3.5707    1.0000 </r>
       <r>   -3.5602    1.0000 </r>
       <r>   -3.5379    1.0000 </r>
       <r>   -3.5116    1.0000 </r>
       <r>   -3.5002    1.0000 </r>
       <r>   -3.4907    1.0000 </r>
       <r>   -3.4704    1.0000 </r>
       <r>   -3.4531    1.0000 </r>
       <r>   -3.4337    1.0000 </r>
       <r>   -3.4237    1.0000 </r>
       <r>   -3.4021    1.0000 </r>
       <r>   -3.3809    1.0000 </r>
       <r>   -3.3515    1.0000 </r>
       <r>   -3.3434    1.0000 </r>
       <r>   -3.3183    1.0000 </r>
       <r>   -3.2907    1.0000 </r>
       <r>   -3.2359    1.0000 </r>
       <r>   -3.2154    1.0000 </r>
       <r>   -3.1824    1.0000 </r>
       <r>   -3.1702    1.0000 </r>
       <r>   -3.1571    1.0000 </r>
       <r>   -3.1390    1.0000 </r>
       <r>   -3.1264    1.0000 </r>
       <r>   -3.1061    1.0000 </r>
       <r>   -3.0831    1.0000 </r>
       <r>   -3.0422    1.0000 </r>
       <r>   -2.9791    1.0000 </r>
       <r>   -2.9692    1.0000 </r>
       <r>   -2.9478    1.0000 </r>
       <r>   -2.9407    1.0000 </r>
       <r>   -2.9050    1.0000 </r>
       <r>   -2.8605    1.0000 </r>
       <r>   -2.8282    1.0000 </r>
       <r>   -2.8221    1.0000 </r>
       <r>   -2.8090    1.0000 </r>
       <r>   -2.7911    1.0000 </r>
       <r>   -2.7697    1.0000 </r>
       <r>   -2.7589    1.0000 </r>
       <r>   -2.7126    1.0000 </r>
       <r>   -2.6902    1.0000 </r>
       <r>   -2.6634    1.0000 </r>
       <r>   -2.6488    1.0000 </r>
       <r>   -2.6188    1.0000 </r>
       <r>   -2.5983    1.0000 </r>
       <r>   -2.5728    1.0000 </r>
       <r>   -2.5374    1.0000 </r>
       <r>   -2.5133    1.0000 </r>
       <r>   -2.4810    1.0000 </r>
       <r>   -2.4343    1.0000 </r>
       <r>   -2.4147    1.0000 </r>
       <r>   -2.3887    1.0000 </r>
       <r>   -2.3792    1.0000 </r>
       <r>   -2.3383    1.0000 </r>
       <r>   -2.3263    1.0000 </r>
       <r>   -2.3117    1.0000 </r>
       <r>   -2.2665    1.0000 </r>
       <r>   -2.2510    1.0000 </r>
       <r>   -2.2312    1.0000 </r>
       <r>   -2.2142    1.0000 </r>
       <r>   -2.1802    1.0000 </r>
       <r>   -2.1561    1.0000 </r>
       <r>   -2.1346    1.0000 </r>
       <r>   -2.1047    1.0000 </r>
       <r>   -2.0805    1.0000 </r>
       <r>   -2.0559    1.0000 </r>
       <r>   -2.0378    1.0000 </r>
       <r>   -2.0267    1.0000 </r>
       <r>   -2.0185    1.0000 </r>
       <r>   -2.0049    1.0000 </r>
       <r>   -1.9848    1.0000 </r>
       <r>   -1.9742    1.0000 </r>
       <r>   -1.9660    1.0000 </r>
       <r>   -1.9335    1.0000 </r>
       <r>   -1.9115    1.0000 </r>
       <r>   -1.8728    1.0000 </r>
       <r>   -1.8375    1.0000 </r>
       <r>   -1.8294    1.0000 </r>
       <r>   -1.7917    1.0000 </r>
       <r>   -1.7331    1.0000 </r>
       <r>   -1.7141    1.0000 </r>
       <r>   -1.7019    1.0000 </r>
       <r>   -1.6893    1.0000 </r>
       <r>   -1.6726    1.0000 </r>
       <r>   -1.6647    1.0000 </r>
       <r>   -1.6528    1.0000 </r>
       <r>   -1.6481    1.0000 </r>
       <r>   -1.6368    1.0000 </r>
       <r>   -1.6357    1.0000 </r>
       <r>   -1.5970    1.0000 </r>
       <r>   -1.5779    1.0000 </r>
       <r>   -1.5741    1.0000 </r>
       <r>   -1.5658    1.0000 </r>
       <r>   -1.5505    1.0000 </r>
       <r>   -1.5400    1.0000 </r>
       <r>   -1.5238    1.0000 </r>
       <r>   -1.5090    1.0000 </r>
       <r>   -1.4897    1.0000 </r>
       <r>   -1.4489    1.0000 </r>
       <r>   -1.4197    1.0000 </r>
       <r>   -1.4040    1.0000 </r>
       <r>   -1.3934    1.0000 </r>
       <r>   -1.3586    1.0000 </r>
       <r>   -1.3493    1.0000 </r>
       <r>   -1.2882    1.0000 </r>
       <r>   -1.2238    1.0000 </r>
       <r>   -1.1057    1.0000 </r>
       <r>   -0.9609    1.0000 </r>
       <r>   -0.9154    1.0000 </r>
       <r>   -0.9057    1.0000 </r>
       <r>   -0.7745    1.0000 </r>
       <r>   -0.7362    1.0000 </r>
       <r>   -0.5065    1.0000 </r>
       <r>   -0.4753    1.0000 </r>
       <r>   -0.4056    1.0000 </r>
       <r>   -0.2359    1.0000 </r>
       <r>   -0.0228    1.0000 </r>
       <r>    0.0707    1.0000 </r>
       <r>    0.4014    0.7526 </r>
       <r>    0.8321   -0.0000 </r>
       <r>    0.9131   -0.0000 </r>
       <r>    1.2697   -0.0000 </r>
       <r>    1.3660   -0.0000 </r>
       <r>    1.5945   -0.0000 </r>
       <r>    1.7632   -0.0000 </r>
       <r>    1.8342   -0.0000 </r>
       <r>    1.8881   -0.0000 </r>
       <r>    2.1470   -0.0000 </r>
       <r>    2.7057    0.0000 </r>
       <r>    2.8758    0.0000 </r>
       <r>    2.9084    0.0000 </r>
       <r>    3.0321    0.0000 </r>
       <r>    3.4414    0.0000 </r>
       <r>    3.5389    0.0000 </r>
       <r>    3.6372    0.0000 </r>
       <r>    3.9168    0.0000 </r>
       <r>    4.0521    0.0000 </r>
       <r>    4.0704    0.0000 </r>
       <r>    4.2604    0.0000 </r>
       <r>    4.5146    0.0000 </r>
       <r>    4.5871    0.0000 </r>
       <r>    4.8220    0.0000 </r>
       <r>    4.8778    0.0000 </r>
       <r>    5.0888    0.0000 </r>
       <r>    5.1752    0.0000 </r>
       <r>    5.2147    0.0000 </r>
       <r>    5.2841    0.0000 </r>
       <r>    5.5627    0.0000 </r>
       <r>    5.6186    0.0000 </r>
       <r>    5.7093    0.0000 </r>
       <r>    5.8576    0.0000 </r>
       <r>    5.9176    0.0000 </r>
       <r>    6.0562    0.0000 </r>
       <r>    6.1541    0.0000 </r>
       <r>    6.1832    0.0000 </r>
       <r>    6.6817    0.0000 </r>
       <r>    6.7771    0.0000 </r>
       <r>    6.8400    0.0000 </r>
      </set>
      <set comment="kpoint 4">
       <r>  -17.0993    1.0000 </r>
       <r>   -7.8423    1.0000 </r>
       <r>   -7.1644    1.0000 </r>
       <r>   -7.1258    1.0000 </r>
       <r>   -6.7301    1.0000 </r>
       <r>   -6.1829    1.0000 </r>
       <r>   -6.1191    1.0000 </r>
       <r>   -5.9627    1.0000 </r>
       <r>   -5.9491    1.0000 </r>
       <r>   -5.8009    1.0000 </r>
       <r>   -5.7892    1.0000 </r>
       <r>   -5.7822    1.0000 </r>
       <r>   -5.7719    1.0000 </r>
       <r>   -5.7655    1.0000 </r>
       <r>   -5.7568    1.0000 </r>
       <r>   -5.6249    1.0000 </r>
       <r>   -5.5625    1.0000 </r>
       <r>   -5.5289    1.0000 </r>
       <r>   -5.5100    1.0000 </r>
       <r>   -5.4633    1.0000 </r>
       <r>   -5.4115    1.0000 </r>
       <r>   -5.3801    1.0000 </r>
       <r>   -5.3573    1.0000 </r>
       <r>   -5.3240    1.0000 </r>
       <r>   -5.3116    1.0000 </r>
       <r>   -5.3030    1.0000 </r>
       <r>   -5.2866    1.0000 </r>
       <r>   -5.2765    1.0000 </r>
       <r>   -5.2236    1.0000 </r>
       <r>   -5.2137    1.0000 </r>
       <r>   -5.1851    1.0000 </r>
       <r>   -5.1515    1.0000 </r>
       <r>   -5.0894    1.0000 </r>
       <r>   -5.0795    1.0000 </r>
       <r>   -5.0161    1.0000 </r>
       <r>   -4.9954    1.0000 </r>
       <r>   -4.9708    1.0000 </r>
       <r>   -4.9232    1.0000 </r>
       <r>   -4.8619    1.0000 </r>
       <r>   -4.7459    1.0000 </r>
       <r>   -4.7197    1.0000 </r>
       <r>   -4.6708    1.0000 </r>
       <r>   -4.6566    1.0000 </r>
       <r>   -4.6336    1.0000 </r>
       <r>   -4.6207    1.0000 </r>
       <r>   -4.6070    1.0000 </r>
       <r>   -4.5855    1.0000 </r>
       <r>   -4.5641    1.0000 </r>
       <r>   -4.5362    1.0000 </r>
       <r>   -4.4932    1.0000 </r>
       <r>   -4.4634    1.0000 </r>
       <r>   -4.4095    1.0000 </r>
       <r>   -4.3952    1.0000 </r>
       <r>   -4.3760    1.0000 </r>
       <r>   -4.3369    1.0000 </r>
       <r>   -4.3258    1.0000 </r>
       <r>   -4.3127    1.0000 </r>
       <r>   -4.2847    1.0000 </r>
       <r>   -4.2796    1.0000 </r>
       <r>   -4.2405    1.0000 </r>
       <r>   -4.1863    1.0000 </r>
       <r>   -4.1720    1.0000 </r>
       <r>   -4.1493    1.0000 </r>
       <r>   -4.1239    1.0000 </r>
       <r>   -4.1025    1.0000 </r>
       <r>   -4.0917    1.0000 </r>
       <r>   -4.0743    1.0000 </r>
       <r>   -4.0543    1.0000 </r>
       <r>   -4.0313    1.0000 </r>
       <r>   -3.9469    1.0000 </r>
       <r>   -3.9234    1.0000 </r>
       <r>   -3.8866    1.0000 </r>
       <r>   -3.8764    1.0000 </r>
       <r>   -3.8629    1.0000 </r>
       <r>   -3.8418    1.0000 </r>
       <r>   -3.8309    1.0000 </r>
       <r>   -3.8012    1.0000 </r>
       <r>   -3.7757    1.0000 </r>
       <r>   -3.7455    1.0000 </r>
       <r>   -3.7005    1.0000 </r>
       <r>   -3.6857    1.0000 </r>
       <r>   -3.6815    1.0000 </r>
       <r>   -3.6517    1.0000 </r>
       <r>   -3.6462    1.0000 </r>
       <r>   -3.6258    1.0000 </r>
       <r>   -3.5912    1.0000 </r>
       <r>   -3.5622    1.0000 </r>
       <r>   -3.5606    1.0000 </r>
       <r>   -3.5128    1.0000 </r>
       <r>   -3.5097    1.0000 </r>
       <r>   -3.4900    1.0000 </r>
       <r>   -3.4857    1.0000 </r>
       <r>   -3.4727    1.0000 </r>
       <r>   -3.4476    1.0000 </r>
       <r>   -3.4369    1.0000 </r>
       <r>   -3.4155    1.0000 </r>
       <r>   -3.4056    1.0000 </r>
       <r>   -3.3848    1.0000 </r>
       <r>   -3.3659    1.0000 </r>
       <r>   -3.3514    1.0000 </r>
       <r>   -3.3437    1.0000 </r>
       <r>   -3.3219    1.0000 </r>
       <r>   -3.3032    1.0000 </r>
       <r>   -3.2867    1.0000 </r>
       <r>   -3.2336    1.0000 </r>
       <r>   -3.2166    1.0000 </r>
       <r>   -3.2015    1.0000 </r>
       <r>   -3.1772    1.0000 </r>
       <r>   -3.1512    1.0000 </r>
       <r>   -3.1307    1.0000 </r>
       <r>   -3.1164    1.0000 </r>
       <r>   -3.0962    1.0000 </r>
       <r>   -3.0829    1.0000 </r>
       <r>   -3.0766    1.0000 </r>
       <r>   -3.0472    1.0000 </r>
       <r>   -2.9450    1.0000 </r>
       <r>   -2.9370    1.0000 </r>
       <r>   -2.8963    1.0000 </r>
       <r>   -2.8657    1.0000 </r>
       <r>   -2.8435    1.0000 </r>
       <r>   -2.8284    1.0000 </r>
       <r>   -2.8133    1.0000 </r>
       <r>   -2.7982    1.0000 </r>
       <r>   -2.7758    1.0000 </r>
       <r>   -2.7602    1.0000 </r>
       <r>   -2.7286    1.0000 </r>
       <r>   -2.6579    1.0000 </r>
       <r>   -2.6310    1.0000 </r>
       <r>   -2.6251    1.0000 </r>
       <r>   -2.6015    1.0000 </r>
       <r>   -2.5542    1.0000 </r>
       <r>   -2.5465    1.0000 </r>
       <r>   -2.5249    1.0000 </r>
       <r>   -2.4916    1.0000 </r>
       <r>   -2.4755    1.0000 </r>
       <r>   -2.4690    1.0000 </r>
       <r>   -2.4267    1.0000 </r>
       <r>   -2.3965    1.0000 </r>
       <r>   -2.3592    1.0000 </r>
       <r>   -2.3260    1.0000 </r>
       <r>   -2.3066    1.0000 </r>
       <r>   -2.2924    1.0000 </r>
       <r>   -2.2422    1.0000 </r>
       <r>   -2.2255    1.0000 </r>
       <r>   -2.1954    1.0000 </r>
[...]
       <r>    6.0029    0.0000 </r>
       <r>    6.0522    0.0000 </r>
       <r>    6.1151    0.0000 </r>
       <r>    6.6154    0.0000 </r>
       <r>    6.6920    0.0000 </r>
      </set>
     </set>
    </set>
   </array>
  </eigenvalues>
  <separator name="orbital magnetization" >
   <v name="MAGDIPOLOUT">      0.00000000      0.00000000      0.00000000</v>
  </separator>
  <dos>
   <i name="efermi">      0.43292057 </i>
   <total>
    <array>
     <dimension dim="1">gridpoints</dimension>
     <dimension dim="2">spin</dimension>
     <field>energy</field>
     <field>total</field>
     <field>integrated</field>
     <set>
      <set comment="spin 1">
       <r>   -18.2981     0.0000     0.0000 </r>
       <r>   -18.2102     0.0000     0.0000 </r>
       <r>   -18.1223     0.0000     0.0000 </r>
       <r>   -18.0344     0.0000     0.0000 </r>
       <r>   -17.9465    -0.0000    -0.0000 </r>
       <r>   -17.8587    -0.0000    -0.0000 </r>
       <r>   -17.7708    -0.0000    -0.0000 </r>
       <r>   -17.6829    -0.0000    -0.0000 </r>
       <r>   -17.5950    -0.0000    -0.0000 </r>
       <r>   -17.5071    -0.0000    -0.0000 </r>
       <r>   -17.4192    -0.0007    -0.0001 </r>
       <r>   -17.3313    -0.0563    -0.0050 </r>
       <r>   -17.2435    -0.6310    -0.0605 </r>
       <r>   -17.1556     2.9245     0.1966 </r>
       <r>   -17.0677    14.9347     1.5091 </r>
       <r>   -16.9798     6.3901     2.0707 </r>
       <r>   -16.8919    -0.6626     2.0124 </r>
       <r>   -16.8040    -0.1387     2.0002 </r>
       <r>   -16.7162    -0.0027     2.0000 </r>
       <r>   -16.6283    -0.0000     2.0000 </r>
       <r>   -16.5404    -0.0000     2.0000 </r>
       <r>   -16.4525    -0.0000     2.0000 </r>
       <r>   -16.3646     0.0000     2.0000 </r>
       <r>   -16.2767     0.0000     2.0000 </r>
       <r>   -16.1889     0.0000     2.0000 </r>
       <r>   -16.1010     0.0000     2.0000 </r>
       <r>   -16.0131     0.0000     2.0000 </r>
       <r>   -15.9252     0.0000     2.0000 </r>
       <r>   -15.8373     0.0000     2.0000 </r>
       <r>   -15.7494     0.0000     2.0000 </r>
       <r>   -15.6616     0.0000     2.0000 </r>
       <r>   -15.5737     0.0000     2.0000 </r>
       <r>   -15.4858     0.0000     2.0000 </r>
       <r>   -15.3979     0.0000     2.0000 </r>
       <r>   -15.3100     0.0000     2.0000 </r>
       <r>   -15.2221     0.0000     2.0000 </r>
       <r>   -15.1342     0.0000     2.0000 </r>
       <r>   -15.0464     0.0000     2.0000 </r>
       <r>   -14.9585     0.0000     2.0000 </r>
       <r>   -14.8706     0.0000     2.0000 </r>
       <r>   -14.7827     0.0000     2.0000 </r>
       <r>   -14.6948     0.0000     2.0000 </r>
       <r>   -14.6069     0.0000     2.0000 </r>
       <r>   -14.5191     0.0000     2.0000 </r>
       <r>   -14.4312     0.0000     2.0000 </r>
       <r>   -14.3433     0.0000     2.0000 </r>
       <r>   -14.2554     0.0000     2.0000 </r>
       <r>   -14.1675     0.0000     2.0000 </r>
       <r>   -14.0796     0.0000     2.0000 </r>
       <r>   -13.9918     0.0000     2.0000 </r>
       <r>   -13.9039     0.0000     2.0000 </r>
       <r>   -13.8160     0.0000     2.0000 </r>
       <r>   -13.7281     0.0000     2.0000 </r>
       <r>   -13.6402     0.0000     2.0000 </r>
       <r>   -13.5523     0.0000     2.0000 </r>
       <r>   -13.4645     0.0000     2.0000 </r>
       <r>   -13.3766     0.0000     2.0000 </r>
       <r>   -13.2887     0.0000     2.0000 </r>
       <r>   -13.2008     0.0000     2.0000 </r>
       <r>   -13.1129     0.0000     2.0000 </r>
       <r>   -13.0250     0.0000     2.0000 </r>
       <r>   -12.9372     0.0000     2.0000 </r>
       <r>   -12.8493     0.0000     2.0000 </r>
       <r>   -12.7614     0.0000     2.0000 </r>
       <r>   -12.6735     0.0000     2.0000 </r>
       <r>   -12.5856     0.0000     2.0000 </r>
       <r>   -12.4977     0.0000     2.0000 </r>
       <r>   -12.4098     0.0000     2.0000 </r>
       <r>   -12.3220     0.0000     2.0000 </r>
       <r>   -12.2341     0.0000     2.0000 </r>
       <r>   -12.1462     0.0000     2.0000 </r>
       <r>   -12.0583     0.0000     2.0000 </r>
       <r>   -11.9704     0.0000     2.0000 </r>
       <r>   -11.8825     0.0000     2.0000 </r>
       <r>   -11.7947     0.0000     2.0000 </r>
       <r>   -11.7068     0.0000     2.0000 </r>
       <r>   -11.6189     0.0000     2.0000 </r>
       <r>   -11.5310     0.0000     2.0000 </r>
       <r>   -11.4431     0.0000     2.0000 </r>
       <r>   -11.3552     0.0000     2.0000 </r>
       <r>   -11.2674     0.0000     2.0000 </r>
       <r>   -11.1795     0.0000     2.0000 </r>
       <r>   -11.0916     0.0000     2.0000 </r>
       <r>   -11.0037     0.0000     2.0000 </r>
       <r>   -10.9158     0.0000     2.0000 </r>
       <r>   -10.8279     0.0000     2.0000 </r>
       <r>   -10.7401     0.0000     2.0000 </r>
       <r>   -10.6522     0.0000     2.0000 </r>
       <r>   -10.5643     0.0000     2.0000 </r>
       <r>   -10.4764     0.0000     2.0000 </r>
       <r>   -10.3885     0.0000     2.0000 </r>
       <r>   -10.3006     0.0000     2.0000 </r>
       <r>   -10.2127     0.0000     2.0000 </r>
       <r>   -10.1249     0.0000     2.0000 </r>
       <r>   -10.0370     0.0000     2.0000 </r>
       <r>    -9.9491     0.0000     2.0000 </r>
       <r>    -9.8612     0.0000     2.0000 </r>
       <r>    -9.7733     0.0000     2.0000 </r>
       <r>    -9.6854     0.0000     2.0000 </r>
       <r>    -9.5976     0.0000     2.0000 </r>
       <r>    -9.5097     0.0000     2.0000 </r>
       <r>    -9.4218     0.0000     2.0000 </r>
       <r>    -9.3339     0.0000     2.0000 </r>
       <r>    -9.2460     0.0000     2.0000 </r>
       <r>    -9.1581     0.0000     2.0000 </r>
       <r>    -9.0703    -0.0000     2.0000 </r>
       <r>    -8.9824    -0.0000     2.0000 </r>
       <r>    -8.8945    -0.0000     2.0000 </r>
       <r>    -8.8066    -0.0000     2.0000 </r>
       <r>    -8.7187    -0.0000     2.0000 </r>
       <r>    -8.6308    -0.0000     2.0000 </r>
       <r>    -8.5430    -0.0004     2.0000 </r>
       <r>    -8.4551    -0.0312     1.9972 </r>
       <r>    -8.3672    -0.3239     1.9688 </r>
       <r>    -8.2793     1.6206     2.1112 </r>
       <r>    -8.1914     7.5263     2.7726 </r>
       <r>    -8.1035     2.9834     3.0348 </r>
       <r>    -8.0157    -0.5188     2.9892 </r>
       <r>    -7.9278     0.0576     2.9943 </r>
       <r>    -7.8399     5.8384     3.5074 </r>
       <r>    -7.7520     5.7094     4.0091 </r>
       <r>    -7.6641     0.0753     4.0158 </r>
       <r>    -7.5762    -0.1726     4.0006 </r>
       <r>    -7.4883    -0.0071     4.0000 </r>
       <r>    -7.4005    -0.0343     3.9970 </r>
       <r>    -7.3126    -0.4675     3.9559 </r>
       <r>    -7.2247     1.0269     4.0461 </r>
       <r>    -7.1368    13.7849     5.2576 </r>
       <r>    -7.0489    17.3710     6.7842 </r>
       <r>    -6.9610     3.1647     7.0623 </r>
       <r>    -6.8732     5.0526     7.5064 </r>
       <r>    -6.7853     6.7283     8.0977 </r>
       <r>    -6.6974     7.3826     8.7465 </r>
       <r>    -6.6095     3.2012     9.0278 </r>
       <r>    -6.5216    -0.9909     8.9408 </r>
       <r>    -6.4337     4.0599     9.2976 </r>
       <r>    -6.3459    14.7035    10.5898 </r>
       <r>    -6.2580     5.0475    11.0334 </r>
       <r>    -6.1701    11.6512    12.0573 </r>
       <r>    -6.0822    30.9676    14.7789 </r>
       <r>    -5.9943    35.9820    17.9411 </r>
       <r>    -5.9064    30.7895    20.6470 </r>
       <r>    -5.8186    29.6642    23.2540 </r>
       <r>    -5.7307    56.8148    28.2471 </r>
       <r>    -5.6428    39.2024    31.6924 </r>
       <r>    -5.5549    28.9262    34.2345 </r>
       <r>    -5.4670    41.9243    37.9190 </r>
       <r>    -5.3791    57.4993    42.9723 </r>
       <r>    -5.2912    88.4081    50.7419 </r>
       <r>    -5.2034    96.7714    59.2466 </r>
       <r>    -5.1155    57.9407    64.3386 </r>
       <r>    -5.0276    51.8102    68.8919 </r>
       <r>    -4.9397    53.1394    73.5620 </r>
       <r>    -4.8518    47.4319    77.7305 </r>
       <r>    -4.7639    35.5038    80.8507 </r>
       <r>    -4.6761    53.3274    85.5373 </r>
       <r>    -4.5882    79.5137    92.5253 </r>
       <r>    -4.5003    59.1467    97.7233 </r>
       <r>    -4.4124    57.7805   102.8013 </r>
       <r>    -4.3245    79.8478   109.8187 </r>
       <r>    -4.2366    67.9755   115.7926 </r>
       <r>    -4.1488    66.0983   121.6016 </r>
       <r>    -4.0609    83.0693   128.9021 </r>
       <r>    -3.9730    71.8784   135.2190 </r>
       <r>    -3.8851    73.3083   141.6616 </r>
       <r>    -3.7972    88.2096   149.4138 </r>
       <r>    -3.7093    91.6050   157.4644 </r>
       <r>    -3.6215   105.1358   166.7042 </r>
       <r>    -3.5336   106.5038   176.0642 </r>
       <r>    -3.4457   119.4110   186.5585 </r>
       <r>    -3.3578   115.9436   196.7480 </r>
       <r>    -3.2699    84.7830   204.1991 </r>
       <r>    -3.1820    82.4455   211.4447 </r>
       <r>    -3.0942   100.2729   220.2571 </r>
       <r>    -3.0063    69.7646   226.3883 </r>
       <r>    -2.9184    59.8205   231.6456 </r>
       <r>    -2.8305    84.0647   239.0335 </r>
       <r>    -2.7426    94.8948   247.3732 </r>
       <r>    -2.6547    69.0893   253.4451 </r>
       <r>    -2.5668    74.9024   260.0278 </r>
       <r>    -2.4790    76.4676   266.7481 </r>
       <r>    -2.3911    72.9656   273.1606 </r>
       <r>    -2.3032    78.3525   280.0465 </r>
       <r>    -2.2153    86.0533   287.6092 </r>
       <r>    -2.1274    94.2671   295.8938 </r>
       <r>    -2.0395    90.7549   303.8696 </r>
       <r>    -1.9517    96.6002   312.3593 </r>
       <r>    -1.8638    73.1668   318.7894 </r>
       <r>    -1.7759    56.6778   323.7705 </r>
       <r>    -1.6880    83.4146   331.1013 </r>
       <r>    -1.6001   130.2869   342.5514 </r>
       <r>    -1.5122   139.9279   354.8489 </r>
       <r>    -1.4244    99.4088   363.5853 </r>
       <r>    -1.3365    84.5191   371.0132 </r>
       <r>    -1.2486    51.7170   375.5583 </r>
       <r>    -1.1607    27.9445   378.0141 </r>
       <r>    -1.0728    15.1216   379.3431 </r>
       <r>    -0.9849    15.5675   380.7112 </r>
       <r>    -0.8971    32.0576   383.5286 </r>
       <r>    -0.8092    26.6239   385.8684 </r>
       <r>    -0.7213    19.6666   387.5967 </r>
       <r>    -0.6334    15.1159   388.9252 </r>
       <r>    -0.5455    14.5073   390.2002 </r>
       <r>    -0.4576    22.8747   392.2105 </r>
       <r>    -0.3697    16.4806   393.6589 </r>
       <r>    -0.2819     6.1242   394.1971 </r>
       <r>    -0.1940    12.8179   395.3236 </r>
       <r>    -0.1061     7.7591   396.0054 </r>
       <r>    -0.0182     6.5029   396.5769 </r>
       <r>     0.0697    18.0324   398.1617 </r>
       <r>     0.1576     9.7297   399.0168 </r>
       <r>     0.2454    -0.1850   399.0005 </r>
       <r>     0.3333     8.1002   399.7124 </r>
       <r>     0.4212    22.4862   401.6886 </r>
       <r>     0.5091    22.0619   403.6275 </r>
       <r>     0.5970     4.6552   404.0366 </r>
       <r>     0.6849     0.1256   404.0476 </r>
       <r>     0.7727    12.7314   405.1665 </r>
       <r>     0.8606    18.6409   406.8047 </r>
       <r>     0.9485    17.7173   408.3618 </r>
       <r>     1.0364    18.9856   410.0303 </r>
       <r>     1.1243     9.3014   410.8478 </r>
       <r>     1.2122     5.7546   411.3535 </r>
       <r>     1.3000    14.5107   412.6288 </r>
       <r>     1.3879    13.2074   413.7895 </r>
       <r>     1.4758    10.5074   414.7129 </r>
       <r>     1.5637     6.5122   415.2853 </r>
       <r>     1.6516     6.5620   415.8620 </r>
       <r>     1.7395     4.4394   416.2521 </r>
       <r>     1.8273    13.4227   417.4318 </r>
       <r>     1.9152    19.0218   419.1035 </r>
       <r>     2.0031     9.3599   419.9261 </r>
       <r>     2.0910     6.4908   420.4965 </r>
       <r>     2.1789    24.0796   422.6127 </r>
       <r>     2.2668    15.1828   423.9470 </r>
       <r>     2.3547     5.8798   424.4638 </r>
       <r>     2.4425    12.4725   425.5599 </r>
       <r>     2.5304     5.0166   426.0008 </r>
       <r>     2.6183     0.6469   426.0576 </r>
       <r>     2.7062    12.3214   427.1405 </r>
       <r>     2.7941    17.7623   428.7015 </r>
       <r>     2.8820    28.4559   431.2023 </r>
       <r>     2.9698    23.2950   433.2496 </r>
       <r>     3.0577    14.0920   434.4880 </r>
       <r>     3.1456     6.2298   435.0355 </r>
       <r>     3.2335    -0.1675   435.0208 </r>
       <r>     3.3214     5.5728   435.5106 </r>
       <r>     3.4093    10.4297   436.4272 </r>
       <r>     3.4971    16.0431   437.8371 </r>
       <r>     3.5850    15.1934   439.1724 </r>
       <r>     3.6729    13.2849   440.3399 </r>
       <r>     3.7608     7.4205   440.9921 </r>
       <r>     3.8487    -0.0043   440.9917 </r>
       <r>     3.9366     7.8448   441.6811 </r>
       <r>     4.0244    21.6793   443.5864 </r>
       <r>     4.1123    27.3208   445.9874 </r>
       <r>     4.2002    11.7586   447.0208 </r>
       <r>     4.2881     8.1428   447.7364 </r>
       <r>     4.3760    11.2689   448.7268 </r>
       <r>     4.4639     8.6988   449.4913 </r>
       <r>     4.5518    17.9864   451.0720 </r>
       <r>     4.6396    10.9377   452.0332 </r>
       <r>     4.7275     7.8135   452.7199 </r>
       <r>     4.8154    16.2433   454.1474 </r>
       <r>     4.9033    17.9631   455.7261 </r>
       <r>     4.9912     3.7032   456.0516 </r>
       <r>     5.0791     4.4601   456.4435 </r>
       <r>     5.1669    12.5673   457.5480 </r>
       <r>     5.2548    17.9192   459.1228 </r>
       <r>     5.3427    16.6980   460.5903 </r>
       <r>     5.4306    14.3557   461.8519 </r>
       <r>     5.5185    14.1523   463.0957 </r>
       <r>     5.6064    13.5114   464.2831 </r>
       <r>     5.6942    16.1134   465.6992 </r>
       <r>     5.7821    19.4037   467.4045 </r>
       <r>     5.8700    24.8703   469.5902 </r>
       <r>     5.9579    33.7202   472.5537 </r>
       <r>     6.0458    25.9331   474.8328 </r>
       <r>     6.1337    23.4117   476.8903 </r>
       <r>     6.2215    15.3178   478.2365 </r>
       <r>     6.3094     1.7153   478.3872 </r>
       <r>     6.3973    -0.8822   478.3097 </r>
       <r>     6.4852     0.8131   478.3811 </r>
       <r>     6.5731     7.5108   479.0412 </r>
       <r>     6.6610    17.9620   480.6198 </r>
       <r>     6.7488    20.6495   482.4345 </r>
       <r>     6.8367    12.7161   483.5521 </r>
       <r>     6.9246     5.1100   484.0012 </r>
       <r>     7.0125     0.1945   484.0183 </r>
       <r>     7.1004    -0.1951   484.0011 </r>
       <r>     7.1883    -0.0125   484.0000 </r>
       <r>     7.2762    -0.0001   484.0000 </r>
       <r>     7.3640    -0.0000   484.0000 </r>
       <r>     7.4519    -0.0000   484.0000 </r>
       <r>     7.5398    -0.0000   484.0000 </r>
       <r>     7.6277     0.0000   484.0000 </r>
       <r>     7.7156     0.0000   484.0000 </r>
       <r>     7.8035     0.0000   484.0000 </r>
       <r>     7.8913     0.0000   484.0000 </r>
       <r>     7.9792     0.0000   484.0000 </r>
       <r>     8.0671     0.0000   484.0000 </r>
      </set>
     </set>
    </array>
   </total>
  </dos>
 </calculation>
 <structure name="finalpos" >
  <crystal>
   <varray name="basis" >
    <v>       8.80347943       0.00000000       0.00000000 </v>
    <v>       4.40173971       7.62403682       0.00000000 </v>
    <v>       0.00000000       0.00000000      23.18801085 </v>
   </varray>
   <i name="volume">   1556.33410245 </i>
   <varray name="rec_basis" >
    <v>       0.11359145      -0.06558205       0.00000000 </v>
    <v>       0.00000000       0.13116411       0.00000000 </v>
    <v>       0.00000000       0.00000000       0.04312573 </v>
   </varray>
  </crystal>
  <varray name="positions" >
   <v>       0.00000000       0.00000000       0.00000000 </v>
   <v>       0.33333333       0.00000000       0.00000000 </v>
   <v>       0.66666667       0.00000000       0.00000000 </v>
   <v>       0.00000000       0.33333333       0.00000000 </v>
   <v>       0.33333333       0.33333333       0.00000000 </v>
   <v>       0.66666667       0.33333333       0.00000000 </v>
   <v>       0.00000000       0.66666667       0.00000000 </v>
   <v>       0.33333333       0.66666667       0.00000000 </v>
   <v>       0.66666667       0.66666667       0.00000000 </v>
   <v>       0.11111111       0.11111111       0.10332942 </v>
   <v>       0.44444444       0.11111111       0.10332942 </v>
   <v>       0.77777778       0.11111111       0.10332942 </v>
   <v>       0.11111111       0.44444444       0.10332942 </v>
   <v>       0.44444444       0.44444444       0.10332942 </v>
   <v>       0.77777778       0.44444444       0.10332942 </v>
   <v>       0.11111111       0.77777778       0.10332942 </v>
   <v>       0.44444444       0.77777778       0.10332942 </v>
   <v>       0.77777778       0.77777778       0.10332942 </v>
   <v>       0.88885723       0.22399937       0.20681300 </v>
   <v>       0.22009262       0.22238645       0.20889991 </v>
   <v>       0.55099200       0.22256454       0.20670927 </v>
   <v>       0.89012997       0.55284336       0.20651472 </v>
   <v>       0.22073968       0.55281617       0.20672335 </v>
   <v>       0.55334418       0.55509297       0.20420892 </v>
   <v>       0.88770315       0.88936220       0.20444857 </v>
   <v>       0.22199358       0.89084331       0.20674799 </v>
   <v>       0.55094328       0.89208431       0.20643552 </v>
   <v>       0.99664060       0.99973241       0.30776886 </v>
   <v>       0.34802247       0.97887004       0.31496685 </v>
   <v>       0.67056360       0.99910136       0.30920008 </v>
   <v>       0.97477050       0.35147271       0.31551420 </v>
   <v>       0.33272173       0.33637376       0.31564339 </v>
   <v>       0.65916567       0.33496847       0.30892298 </v>
   <v>       0.99596028       0.67359511       0.30924773 </v>
   <v>       0.33175845       0.66260697       0.30889636 </v>
   <v>       0.66190665       0.66536369       0.30663706 </v>
   <v>       0.20466707       0.20785874       0.36570949 </v>
  </varray>
  <varray name="selective"  type="logical" >
   <v type="logical" >  F  F  F </v>
   <v type="logical" >  F  F  F </v>
   <v type="logical" >  F  F  F </v>
   <v type="logical" >  F  F  F </v>
   <v type="logical" >  F  F  F </v>
   <v type="logical" >  F  F  F </v>
   <v type="logical" >  F  F  F </v>
   <v type="logical" >  F  F  F </v>
   <v type="logical" >  F  F  F </v>
   <v type="logical" >  F  F  F </v>
   <v type="logical" >  F  F  F </v>
   <v type="logical" >  F  F  F </v>
   <v type="logical" >  F  F  F </v>
   <v type="logical" >  F  F  F </v>
   <v type="logical" >  F  F  F </v>
   <v type="logical" >  F  F  F </v>
   <v type="logical" >  F  F  F </v>
   <v type="logical" >  F  F  F </v>
   <v type="logical" >  T  T  T </v>
   <v type="logical" >  T  T  T </v>
   <v type="logical" >  T  T  T </v>
   <v type="logical" >  T  T  T </v>
   <v type="logical" >  T  T  T </v>
   <v type="logical" >  T  T  T </v>
   <v type="logical" >  T  T  T </v>
   <v type="logical" >  T  T  T </v>
   <v type="logical" >  T  T  T </v>
   <v type="logical" >  T  T  T </v>
   <v type="logical" >  T  T  T </v>
   <v type="logical" >  T  T  T </v>
   <v type="logical" >  T  T  T </v>
   <v type="logical" >  T  T  T </v>
   <v type="logical" >  T  T  T </v>
   <v type="logical" >  T  T  T </v>
   <v type="logical" >  T  T  T </v>
   <v type="logical" >  T  T  T </v>
   <v type="logical" >  T  T  T </v>
  </varray>
  <nose>
   <v>      -3.00000000       0.00000000       0.00010000       0.00010000 </v>
  </nose>
 </structure>
</modeling>
