unknown system                          
           1
     8.803479    0.000000    0.000000
     4.401740    7.624037    0.000000
     0.000000    0.000000   23.188011
   Au   O 
    36     1
Direct configuration=     1
   0.00000000  0.00000000  0.00000000
   0.33333333  0.00000000  0.00000000
   0.66666667  0.00000000  0.00000000
   0.00000000  0.33333333  0.00000000
   0.33333333  0.33333333  0.00000000
   0.66666667  0.33333333  0.00000000
   0.00000000  0.66666667  0.00000000
   0.33333333  0.66666667  0.00000000
   0.66666667  0.66666667  0.00000000
   0.11111111  0.11111111  0.10332942
   0.44444444  0.11111111  0.10332942
   0.77777778  0.11111111  0.10332942
   0.11111111  0.44444444  0.10332942
   0.44444444  0.44444444  0.10332942
   0.77777778  0.44444444  0.10332942
   0.11111111  0.77777778  0.10332942
   0.44444444  0.77777778  0.10332942
   0.77777778  0.77777778  0.10332942
   0.88885723  0.22399937  0.20681300
   0.22009262  0.22238645  0.20889991
   0.55099200  0.22256454  0.20670927
   0.89012997  0.55284336  0.20651472
   0.22073968  0.55281617  0.20672335
   0.55334418  0.55509297  0.20420892
   0.88770315  0.88936220  0.20444857
   0.22199358  0.89084331  0.20674799
   0.55094328  0.89208431  0.20643552
   0.99664060  0.99973241  0.30776886
   0.34802247  0.97887004  0.31496685
   0.67056360  0.99910136  0.30920008
   0.97477050  0.35147271  0.31551420
   0.33272173  0.33637376  0.31564339
   0.65916567  0.33496847  0.30892298
   0.99596028  0.67359511  0.30924773
   0.33175845  0.66260697  0.30889636
   0.66190665  0.66536369  0.30663706
   0.20466707  0.20785874  0.36570949
