  37  37   0   0
  0.4206308E+02  0.8803480E-09  0.8803480E-09  0.2318801E-08  0.5000000E-15
   1.0000000000000000E-004
  CAR 
 unknown system                          
      8.13237845    -18.09224262  301      0.43270915      1.00000000
    -18.092  0.0000E+00  0.0000E+00
    -18.005  0.0000E+00  0.0000E+00
    -17.917  0.0000E+00  0.0000E+00
    -17.830  0.0000E+00  0.0000E+00
    -17.743 -0.7949E-29 -0.6949E-30
    -17.655 -0.8293E-23 -0.7249E-24
    -17.568 -0.1851E-17 -0.1618E-18
    -17.480 -0.8558E-13 -0.7481E-14
    -17.393 -0.8532E-09 -0.7459E-10
    -17.306 -0.1773E-05 -0.1550E-06
    -17.218 -0.7465E-03 -0.6541E-04
    -17.131 -0.5928E-01 -0.5248E-02
    -17.043 -0.6379E+00 -0.6101E-01
    -16.956  0.2970E+01  0.1987E+00
    -16.868  0.1495E+02  0.1505E+01
    -16.781  0.6464E+01  0.2071E+01
    -16.694 -0.6585E+00  0.2013E+01
    -16.606 -0.1451E+00  0.2000E+01
    -16.519 -0.3002E-02  0.2000E+01
    -16.431 -0.1122E-04  0.2000E+01
    -16.344 -0.8392E-08  0.2000E+01
    -16.257 -0.1301E-11  0.2000E+01
    -16.169  0.0000E+00  0.2000E+01
    -16.082  0.0000E+00  0.2000E+01
    -15.994  0.0000E+00  0.2000E+01
    -15.907  0.0000E+00  0.2000E+01
    -15.819  0.0000E+00  0.2000E+01
    -15.732  0.0000E+00  0.2000E+01
    -15.645  0.0000E+00  0.2000E+01
    -15.557  0.0000E+00  0.2000E+01
    -15.470  0.0000E+00  0.2000E+01
    -15.382  0.0000E+00  0.2000E+01
    -15.295  0.0000E+00  0.2000E+01
    -15.208  0.0000E+00  0.2000E+01
    -15.120  0.0000E+00  0.2000E+01
    -15.033  0.0000E+00  0.2000E+01
    -14.945  0.0000E+00  0.2000E+01
    -14.858  0.0000E+00  0.2000E+01
    -14.770  0.0000E+00  0.2000E+01
    -14.683  0.0000E+00  0.2000E+01
    -14.596  0.0000E+00  0.2000E+01
    -14.508  0.0000E+00  0.2000E+01
    -14.421  0.0000E+00  0.2000E+01
    -14.333  0.0000E+00  0.2000E+01
    -14.246  0.0000E+00  0.2000E+01
    -14.159  0.0000E+00  0.2000E+01
    -14.071  0.0000E+00  0.2000E+01
    -13.984  0.0000E+00  0.2000E+01
    -13.896  0.0000E+00  0.2000E+01
    -13.809  0.0000E+00  0.2000E+01
    -13.721  0.0000E+00  0.2000E+01
    -13.634  0.0000E+00  0.2000E+01
    -13.547  0.0000E+00  0.2000E+01
    -13.459  0.0000E+00  0.2000E+01
    -13.372  0.0000E+00  0.2000E+01
    -13.284  0.0000E+00  0.2000E+01
    -13.197  0.0000E+00  0.2000E+01
    -13.110  0.0000E+00  0.2000E+01
    -13.022  0.0000E+00  0.2000E+01
    -12.935  0.0000E+00  0.2000E+01
    -12.847  0.0000E+00  0.2000E+01
    -12.760  0.0000E+00  0.2000E+01
    -12.672  0.0000E+00  0.2000E+01
    -12.585  0.0000E+00  0.2000E+01
    -12.498  0.0000E+00  0.2000E+01
    -12.410  0.0000E+00  0.2000E+01
    -12.323  0.0000E+00  0.2000E+01
    -12.235  0.0000E+00  0.2000E+01
    -12.148  0.0000E+00  0.2000E+01
    -12.061  0.0000E+00  0.2000E+01
    -11.973  0.0000E+00  0.2000E+01
    -11.886  0.0000E+00  0.2000E+01
    -11.798  0.0000E+00  0.2000E+01
    -11.711  0.0000E+00  0.2000E+01
    -11.624  0.0000E+00  0.2000E+01
    -11.536  0.0000E+00  0.2000E+01
    -11.449  0.0000E+00  0.2000E+01
    -11.361  0.0000E+00  0.2000E+01
    -11.274  0.0000E+00  0.2000E+01
    -11.186  0.0000E+00  0.2000E+01
    -11.099  0.0000E+00  0.2000E+01
    -11.012  0.0000E+00  0.2000E+01
    -10.924  0.0000E+00  0.2000E+01
    -10.837  0.0000E+00  0.2000E+01
    -10.749  0.0000E+00  0.2000E+01
    -10.662  0.0000E+00  0.2000E+01
    -10.575  0.0000E+00  0.2000E+01
    -10.487  0.0000E+00  0.2000E+01
    -10.400  0.0000E+00  0.2000E+01
    -10.312  0.0000E+00  0.2000E+01
    -10.225  0.0000E+00  0.2000E+01
    -10.137  0.0000E+00  0.2000E+01
    -10.050  0.0000E+00  0.2000E+01
     -9.963  0.0000E+00  0.2000E+01
     -9.875  0.0000E+00  0.2000E+01
     -9.788  0.0000E+00  0.2000E+01
     -9.700  0.0000E+00  0.2000E+01
     -9.613  0.0000E+00  0.2000E+01
     -9.526  0.0000E+00  0.2000E+01
     -9.438  0.0000E+00  0.2000E+01
     -9.351  0.0000E+00  0.2000E+01
     -9.263  0.0000E+00  0.2000E+01
     -9.176  0.0000E+00  0.2000E+01
     -9.088 -0.3078E-29  0.2000E+01
     -9.001 -0.3298E-23  0.2000E+01
     -8.914 -0.7562E-18  0.2000E+01
     -8.826 -0.3570E-13  0.2000E+01
     -8.739 -0.3679E-09  0.2000E+01
     -8.651 -0.7857E-06  0.2000E+01
     -8.564 -0.3404E-03  0.2000E+01
     -8.477 -0.2787E-01  0.1998E+01
     -8.389 -0.3136E+00  0.1970E+01
     -8.302  0.1393E+01  0.2092E+01
     -8.214  0.7432E+01  0.2742E+01
     -8.127  0.3351E+01  0.3035E+01
     -8.039 -0.4788E+00  0.2993E+01
     -7.952 -0.1062E+00  0.2983E+01
     -7.865  0.5335E+01  0.3450E+01
     -7.777  0.6222E+01  0.3994E+01
     -7.690  0.2909E+00  0.4019E+01
     -7.602 -0.2079E+00  0.4001E+01
     -7.515 -0.1008E-01  0.4000E+01
     -7.428 -0.2021E-01  0.3998E+01
     -7.340 -0.3960E+00  0.3964E+01
     -7.253  0.1928E+00  0.3980E+01
     -7.165  0.1256E+02  0.5079E+01
     -7.078  0.1877E+02  0.6720E+01
     -6.990  0.3801E+01  0.7052E+01
     -6.903  0.4277E+01  0.7426E+01
     -6.816  0.6998E+01  0.8037E+01
     -6.728  0.7299E+01  0.8675E+01
     -6.641  0.4007E+01  0.9026E+01
     -6.553 -0.8346E+00  0.8953E+01
     -6.466  0.2685E+01  0.9187E+01
     -6.379  0.1411E+02  0.1042E+02
     -6.291  0.6437E+01  0.1098E+02
     -6.204  0.8456E+01  0.1172E+02
     -6.116  0.2878E+02  0.1424E+02
     -6.029  0.3426E+02  0.1723E+02
     -5.942  0.3355E+02  0.2017E+02
     -5.854  0.2727E+02  0.2255E+02
     -5.767  0.5332E+02  0.2721E+02
     -5.679  0.4457E+02  0.3111E+02
     -5.592  0.2918E+02  0.3366E+02
     -5.504  0.3943E+02  0.3710E+02
     -5.417  0.5038E+02  0.4151E+02
     -5.330  0.7857E+02  0.4838E+02
     -5.242  0.1016E+03  0.5726E+02
     -5.155  0.6665E+02  0.6308E+02
     -5.067  0.5147E+02  0.6758E+02
     -4.980  0.5726E+02  0.7259E+02
     -4.893  0.4929E+02  0.7690E+02
     -4.805  0.4253E+02  0.8062E+02
     -4.718  0.4391E+02  0.8445E+02
     -4.630  0.7220E+02  0.9076E+02
     -4.543  0.6923E+02  0.9682E+02
     -4.455  0.4868E+02  0.1011E+03
     -4.368  0.7352E+02  0.1075E+03
     -4.281  0.7200E+02  0.1138E+03
     -4.193  0.6047E+02  0.1191E+03
     -4.106  0.7921E+02  0.1260E+03
     -4.018  0.7363E+02  0.1324E+03
     -3.931  0.7804E+02  0.1393E+03
     -3.844  0.8129E+02  0.1464E+03
     -3.756  0.8786E+02  0.1540E+03
     -3.669  0.1081E+03  0.1635E+03
     -3.581  0.1091E+03  0.1730E+03
     -3.494  0.1104E+03  0.1827E+03
     -3.406  0.1219E+03  0.1933E+03
     -3.319  0.1011E+03  0.2022E+03
     -3.232  0.8086E+02  0.2092E+03
     -3.144  0.9389E+02  0.2175E+03
     -3.057  0.8399E+02  0.2248E+03
     -2.969  0.5542E+02  0.2296E+03
     -2.882  0.6251E+02  0.2351E+03
     -2.795  0.9712E+02  0.2436E+03
     -2.707  0.7780E+02  0.2504E+03
     -2.620  0.7276E+02  0.2568E+03
     -2.532  0.7803E+02  0.2636E+03
     -2.445  0.7045E+02  0.2697E+03
     -2.357  0.8266E+02  0.2770E+03
     -2.270  0.8117E+02  0.2841E+03
     -2.183  0.9136E+02  0.2920E+03
     -2.095  0.9593E+02  0.3004E+03
     -2.008  0.9751E+02  0.3090E+03
     -1.920  0.8111E+02  0.3160E+03
     -1.833  0.6125E+02  0.3214E+03
     -1.746  0.6468E+02  0.3270E+03
     -1.658  0.1062E+03  0.3363E+03
     -1.571  0.1395E+03  0.3485E+03
     -1.483  0.1227E+03  0.3593E+03
     -1.396  0.9031E+02  0.3672E+03
     -1.308  0.7249E+02  0.3735E+03
     -1.221  0.3853E+02  0.3769E+03
     -1.134  0.1567E+02  0.3782E+03
     -1.046  0.1475E+02  0.3795E+03
     -0.959  0.2769E+02  0.3819E+03
     -0.871  0.2975E+02  0.3845E+03
     -0.784  0.2121E+02  0.3864E+03
     -0.697  0.1782E+02  0.3880E+03
     -0.609  0.1901E+02  0.3896E+03
     -0.522  0.1863E+02  0.3912E+03
     -0.434  0.1527E+02  0.3926E+03
     -0.347  0.1384E+02  0.3938E+03
     -0.260  0.1404E+02  0.3950E+03
     -0.172  0.9183E+01  0.3958E+03
     -0.085  0.5626E+01  0.3963E+03
      0.003  0.9217E+01  0.3971E+03
      0.090  0.1505E+02  0.3984E+03
      0.178  0.6683E+01  0.3990E+03
      0.265  0.1079E+01  0.3991E+03
      0.352  0.1222E+02  0.4002E+03
      0.440  0.2298E+02  0.4022E+03
      0.527  0.1937E+02  0.4039E+03
      0.615  0.1533E+01  0.4040E+03
      0.702  0.3764E+01  0.4043E+03
      0.789  0.1577E+02  0.4057E+03
      0.877  0.1835E+02  0.4073E+03
      0.964  0.2073E+02  0.4091E+03
      1.052  0.1306E+02  0.4103E+03
      1.139  0.5777E+01  0.4108E+03
      1.227  0.1169E+02  0.4118E+03
      1.314  0.1638E+02  0.4132E+03
      1.401  0.1093E+02  0.4142E+03
      1.489  0.7313E+01  0.4148E+03
      1.576  0.6843E+01  0.4154E+03
      1.664  0.5898E+01  0.4159E+03
      1.751  0.8635E+01  0.4167E+03
      1.838  0.1512E+02  0.4180E+03
      1.926  0.1575E+02  0.4194E+03
      2.013  0.6662E+01  0.4200E+03
      2.101  0.1131E+02  0.4210E+03
      2.188  0.2600E+02  0.4232E+03
      2.276  0.9711E+01  0.4241E+03
      2.363  0.6245E+01  0.4246E+03
      2.450  0.1221E+02  0.4257E+03
      2.538  0.3279E+01  0.4260E+03
      2.625  0.2789E+01  0.4262E+03
      2.713  0.1586E+02  0.4276E+03
      2.800  0.1966E+02  0.4293E+03
      2.887  0.2643E+02  0.4316E+03
      2.975  0.1937E+02  0.4333E+03
      3.062  0.1430E+02  0.4346E+03
      3.150  0.7201E+01  0.4352E+03
      3.237  0.4285E+01  0.4356E+03
      3.325  0.4027E+01  0.4359E+03
      3.412  0.1139E+02  0.4369E+03
      3.499  0.1579E+02  0.4383E+03
      3.587  0.1278E+02  0.4394E+03
      3.674  0.1322E+02  0.4406E+03
      3.762  0.4759E+01  0.4410E+03
      3.849 -0.1948E+00  0.4410E+03
      3.936  0.1242E+02  0.4421E+03
      4.024  0.2669E+02  0.4444E+03
      4.111  0.2255E+02  0.4464E+03
      4.199  0.8318E+01  0.4471E+03
      4.286  0.9226E+01  0.4479E+03
      4.374  0.1178E+02  0.4490E+03
      4.461  0.1335E+02  0.4501E+03
      4.548  0.1502E+02  0.4514E+03
      4.636  0.6966E+01  0.4520E+03
      4.723  0.7498E+01  0.4527E+03
      4.811  0.1507E+02  0.4540E+03
      4.898  0.1873E+02  0.4556E+03
      4.985  0.5078E+01  0.4561E+03
      5.073  0.4168E+01  0.4565E+03
      5.160  0.1265E+02  0.4576E+03
      5.248  0.2136E+02  0.4594E+03
      5.335  0.1640E+02  0.4609E+03
      5.423  0.1146E+02  0.4619E+03
      5.510  0.1778E+02  0.4634E+03
      5.597  0.1151E+02  0.4644E+03
      5.685  0.1333E+02  0.4656E+03
      5.772  0.2086E+02  0.4674E+03
      5.860  0.2421E+02  0.4695E+03
      5.947  0.3269E+02  0.4724E+03
      6.034  0.2513E+02  0.4746E+03
      6.122  0.2275E+02  0.4766E+03
      6.209  0.1710E+02  0.4781E+03
      6.297  0.3542E+01  0.4784E+03
      6.384 -0.2341E+00  0.4784E+03
      6.471  0.4193E+01  0.4787E+03
      6.559  0.7968E+01  0.4794E+03
      6.646  0.1492E+02  0.4807E+03
      6.734  0.1581E+02  0.4821E+03
      6.821  0.9928E+01  0.4830E+03
      6.909  0.6405E+01  0.4835E+03
      6.996  0.4827E+01  0.4840E+03
      7.083  0.7032E+00  0.4840E+03
      7.171 -0.2091E+00  0.4840E+03
      7.258 -0.1717E-01  0.4840E+03
      7.346 -0.2032E-03  0.4840E+03
      7.433 -0.4588E-06  0.4840E+03
      7.520 -0.2113E-09  0.4840E+03
      7.608 -0.2032E-13  0.4840E+03
      7.695  0.0000E+00  0.4840E+03
      7.783  0.0000E+00  0.4840E+03
      7.870  0.0000E+00  0.4840E+03
      7.958  0.0000E+00  0.4840E+03
      8.045  0.0000E+00  0.4840E+03
      8.132  0.0000E+00  0.4840E+03
