 running   48 mpi-ranks, with    1 threads/rank, on    1 nodes
 distrk:  each k-point on   48 cores,    1 groups
 distr:  one band on   24 cores,    2 groups
 vasp.6.4.3 19Mar24 (build Oct  2 2024 09:01:45) complex                         
 POSCAR found type information on POSCAR AuO 
 POSCAR found :  2 types and      37 ions
 scaLAPACK will be used
 LDA part: xc-table for (Slater+PW92), standard interpolation
 POSCAR, INCAR and KPOINTS ok, starting setup
 FFT: planning ... GRIDC
 FFT: planning ... GRID_SOFT
 FFT: planning ... GRID
 WAVECAR not read
 WARNING: random wavefunctions but no delay for mixing, default for NELMDL
 entering main loop
       N       E                     dE             d eps       ncg     rms          rms(c)
DAV:   1     0.247379547882E+04    0.24738E+04   -0.15921E+05  2904   0.117E+03
DAV:   2     0.336217977009E+02   -0.24402E+04   -0.22510E+04  3360   0.271E+02
DAV:   3    -0.122811620203E+03   -0.15643E+03   -0.14922E+03  3304   0.622E+01
DAV:   4    -0.127011929056E+03   -0.42003E+01   -0.41661E+01  3240   0.103E+01
DAV:   5    -0.127162473937E+03   -0.15054E+00   -0.15013E+00  3424   0.192E+00    0.448E+01
RMM:   6    -0.121890294302E+03    0.52722E+01   -0.30362E+01  3116   0.116E+01    0.385E+01
RMM:   7    -0.133815738454E+03   -0.11925E+02   -0.38729E+01  3339   0.789E+00    0.324E+01
RMM:   8    -0.137859203476E+03   -0.40435E+01   -0.34256E+01  3417   0.847E+00    0.273E+01
RMM:   9    -0.118768260427E+03    0.19091E+02   -0.14104E+01  3282   0.618E+00    0.128E+01
RMM:  10    -0.115189411986E+03    0.35788E+01   -0.61463E+00  3279   0.443E+00    0.449E+00
RMM:  11    -0.115178034229E+03    0.11378E-01   -0.18481E+00  3282   0.195E+00    0.698E+00
RMM:  12    -0.115033445457E+03    0.14459E+00   -0.11176E+00  3258   0.167E+00    0.306E+00
RMM:  13    -0.114891687472E+03    0.14176E+00   -0.69481E-02  3154   0.551E-01    0.224E+00
RMM:  14    -0.114785702672E+03    0.10598E+00   -0.61715E-02  3307   0.422E-01    0.473E-01
RMM:  15    -0.114785540638E+03    0.16203E-03   -0.15835E-02  3317   0.189E-01    0.264E-01
RMM:  16    -0.114788325131E+03   -0.27845E-02   -0.26275E-03  3223   0.866E-02    0.313E-01
RMM:  17    -0.114788035104E+03    0.29003E-03   -0.17553E-03  3225   0.536E-02    0.525E-02
RMM:  18    -0.114788260047E+03   -0.22494E-03   -0.25376E-04  2130   0.245E-02    0.256E-02
RMM:  19    -0.114788991768E+03   -0.73172E-03   -0.23481E-04  2106   0.218E-02    0.188E-02
RMM:  20    -0.114789250742E+03   -0.25897E-03   -0.86432E-05  1947   0.129E-02    0.413E-02
RMM:  21    -0.114789413399E+03   -0.16266E-03   -0.46848E-05  1768   0.935E-03    0.186E-02
RMM:  22    -0.114789467492E+03   -0.54094E-04   -0.13825E-05  1062   0.554E-03
   1 F= -.11478947E+03 E0= -.11478024E+03  d E =-.276930E-01
