<?xml version="1.0" encoding="ISO-8859-1"?>
<modeling>
 <generator>
  <i name="program" type="string">vasp </i>
  <i name="version" type="string">6.4.3  </i>
  <i name="subversion" type="string">19Mar24 (build Oct  2 2024 09:01:45) complex                          parallel </i>
  <i name="platform" type="string">LinuxGNU </i>
  <i name="date" type="string">2025 02 17 </i>
  <i name="time" type="string">19:37:12 </i>
 </generator>
 <incar>
  <i type="string" name="PREC">Accurate</i>
  <i type="string" name="ALGO">Fast</i>
  <i type="int" name="ICHARG">     2</i>
  <i type="int" name="IBRION">    -1</i>
  <i name="EDIFF">      0.00010000</i>
  <i name="EDIFFG">     -0.03000000</i>
  <i type="int" name="ISYM">     0</i>
  <i name="ENCUT">    400.00000000</i>
  <i type="string" name="LREAL">Auto</i>
  <i type="int" name="ISMEAR">     1</i>
  <i name="SIGMA">      0.10000000</i>
  <i type="logical" name="LWAVE"> F  </i>
  <i type="logical" name="LCHARG"> F  </i>
  <i type="string" name="GGA">PE</i>
  <i type="logical" name="LDIPOL"> T  </i>
  <i type="int" name="IDIPOL">     3</i>
 </incar>
 <primitive_cell>
  <structure name="primitive_cell" >
   <crystal>
    <varray name="basis" >
     <v>       8.80347943       0.00000000       0.00000000 </v>
     <v>       4.40173971       7.62403682       0.00000000 </v>
     <v>       0.00000000       0.00000000      23.18801085 </v>
    </varray>
    <i name="volume">   1556.33410245 </i>
    <varray name="rec_basis" >
     <v>       0.11359145      -0.06558205       0.00000000 </v>
     <v>       0.00000000       0.13116411       0.00000000 </v>
     <v>       0.00000000       0.00000000       0.04312573 </v>
    </varray>
   </crystal>
   <varray name="positions" >
    <v>       0.00000000       0.00000000       0.00000000 </v>
    <v>       0.33333333       0.00000000       0.00000000 </v>
    <v>       0.66666667       0.00000000       0.00000000 </v>
    <v>       0.00000000       0.33333333       0.00000000 </v>
    <v>       0.33333333       0.33333333       0.00000000 </v>
    <v>       0.66666667       0.33333333       0.00000000 </v>
    <v>       0.00000000       0.66666667       0.00000000 </v>
    <v>       0.33333333       0.66666667       0.00000000 </v>
    <v>       0.66666667       0.66666667       0.00000000 </v>
    <v>       0.11111111       0.11111111       0.10332942 </v>
    <v>       0.44444444       0.11111111       0.10332942 </v>
    <v>       0.77777778       0.11111111       0.10332942 </v>
    <v>       0.11111111       0.44444444       0.10332942 </v>
    <v>       0.44444444       0.44444444       0.10332942 </v>
    <v>       0.77777778       0.44444444       0.10332942 </v>
    <v>       0.11111111       0.77777778       0.10332942 </v>
    <v>       0.44444444       0.77777778       0.10332942 </v>
    <v>       0.77777778       0.77777778       0.10332942 </v>
    <v>       0.88949206       0.22336328       0.20701268 </v>
    <v>       0.21999012       0.22224863       0.20839285 </v>
    <v>       0.55402847       0.22131213       0.20569408 </v>
    <v>       0.89019671       0.55250704       0.20672542 </v>
    <v>       0.21956086       0.55583142       0.20566629 </v>
    <v>       0.55397406       0.55564814       0.20456533 </v>
    <v>       0.88818319       0.88981853       0.20477760 </v>
    <v>       0.22148300       0.89144939       0.20698649 </v>
    <v>       0.55051426       0.89227970       0.20669409 </v>
    <v>       0.99795807       0.00077916       0.30857849 </v>
    <v>       0.35489948       0.98660775       0.31447801 </v>
    <v>       0.67206497       0.00181800       0.30975130 </v>
    <v>       0.98287748       0.35817879       0.31475458 </v>
    <v>       0.33504562       0.33835720       0.30923812 </v>
    <v>       0.66294241       0.33554216       0.30887969 </v>
    <v>       0.99906671       0.67484777       0.30977905 </v>
    <v>       0.33263269       0.66609278       0.30884277 </v>
    <v>       0.66479044       0.66809445       0.30690204 </v>
    <v>       0.16699041       0.17003098       0.36922475 </v>
   </varray>
  </structure>
  <varray name="primitive_index" >
   <v type="int" >        1 </v>
   <v type="int" >        2 </v>
   <v type="int" >        3 </v>
   <v type="int" >        4 </v>
   <v type="int" >        5 </v>
   <v type="int" >        6 </v>
   <v type="int" >        7 </v>
   <v type="int" >        8 </v>
   <v type="int" >        9 </v>
   <v type="int" >       10 </v>
   <v type="int" >       11 </v>
   <v type="int" >       12 </v>
   <v type="int" >       13 </v>
   <v type="int" >       14 </v>
   <v type="int" >       15 </v>
   <v type="int" >       16 </v>
   <v type="int" >       17 </v>
   <v type="int" >       18 </v>
   <v type="int" >       19 </v>
   <v type="int" >       20 </v>
   <v type="int" >       21 </v>
   <v type="int" >       22 </v>
   <v type="int" >       23 </v>
   <v type="int" >       24 </v>
   <v type="int" >       25 </v>
   <v type="int" >       26 </v>
   <v type="int" >       27 </v>
   <v type="int" >       28 </v>
   <v type="int" >       29 </v>
   <v type="int" >       30 </v>
   <v type="int" >       31 </v>
   <v type="int" >       32 </v>
   <v type="int" >       33 </v>
   <v type="int" >       34 </v>
   <v type="int" >       35 </v>
   <v type="int" >       36 </v>
   <v type="int" >       37 </v>
  </varray>
 </primitive_cell>
 <kpoints>
  <generation param="Monkhorst-Pack">
   <v type="int" name="divisions">       2        2        1 </v>
   <v name="usershift">      0.00000000       0.00000000       0.00000000 </v>
   <v name="genvec1">      0.50000000       0.00000000       0.00000000 </v>
   <v name="genvec2">      0.00000000       0.50000000       0.00000000 </v>
   <v name="genvec3">      0.00000000       0.00000000       1.00000000 </v>
   <v name="shift">      0.50000000       0.50000000       0.00000000 </v>
  </generation>
  <varray name="kpointlist" >
   <v>       0.25000000       0.25000000       0.00000000 </v>
   <v>       0.00000000       0.25000000       0.00000000 </v>
   <v>      -0.25000000       0.00000000       0.00000000 </v>
   <v>      -0.25000000       0.25000000       0.00000000 </v>
   <v>       0.50000000      -0.25000000       0.00000000 </v>
   <v>      -0.25000000       0.50000000       0.00000000 </v>
  </varray>
  <varray name="weights" >
   <v>       0.16666667 </v>
   <v>       0.16666667 </v>
   <v>       0.16666667 </v>
   <v>       0.16666667 </v>
   <v>       0.16666667 </v>
   <v>       0.16666667 </v>
  </varray>
 </kpoints>
 <parameters>
  <separator name="general" >
   <i type="string" name="SYSTEM">unknown system</i>
   <i type="logical" name="LCOMPAT"> F  </i>
  </separator>
  <separator name="electronic" >
   <i type="string" name="PREC">accura</i>
   <i name="ENMAX">    400.00000000</i>
   <i name="ENAUG">    605.39200000</i>
   <i name="EDIFF">      0.00010000</i>
   <i type="int" name="IALGO">    68</i>
   <i type="int" name="IWAVPR">    10</i>
   <i type="int" name="NBANDS">   242</i>
   <i type="int" name="NBANDSLOW">    -1</i>
   <i type="int" name="NBANDSHIGH">    -1</i>
   <i name="NELECT">    402.00000000</i>
   <i type="int" name="TURBO">     0</i>
   <i type="int" name="IRESTART">     0</i>
   <i type="int" name="NREBOOT">     0</i>
   <i type="int" name="NMIN">     0</i>
   <i name="EREF">      0.00000000</i>
   <separator name="electronic smearing" >
    <i type="int" name="ISMEAR">     1</i>
    <i name="SIGMA">      0.10000000</i>
    <i name="KSPACING">      0.50000000</i>
    <i type="logical" name="KGAMMA"> T  </i>
    <i type="logical" name="KBLOWUP"> T  </i>
   </separator>
   <separator name="electronic projectors" >
    <i type="logical" name="LREAL"> T  </i>
    <v name="ROPT">     -0.00025000     -0.00025000</v>
    <i type="int" name="LMAXPAW">  -100</i>
    <i type="int" name="LMAXMIX">     2</i>
    <i type="logical" name="NLSPLINE"> F  </i>
   </separator>
   <separator name="electronic startup" >
    <i type="int" name="ISTART">     0</i>
    <i type="int" name="ICHARG">     2</i>
    <i type="int" name="INIWAV">     1</i>
   </separator>
   <separator name="electronic spin" >
    <i type="int" name="ISPIN">     1</i>
    <i type="logical" name="LNONCOLLINEAR"> F  </i>
    <v name="MAGMOM">      1.00000000      1.00000000      1.00000000      1.00000000      1.00000000      1.00000000      1.00000000      1.00000000      1.00000000      1.00000000      1.00000000      1.00000000      1.00000000      1.00000000      1.00000000      1.00000000      1.00000000      1.00000000      1.00000000      1.00000000
      1.00000000      1.00000000      1.00000000      1.00000000      1.00000000      1.00000000      1.00000000      1.00000000      1.00000000      1.00000000      1.00000000      1.00000000      1.00000000      1.00000000      1.00000000      1.00000000      1.00000000</v>
    <i name="NUPDOWN">     -1.00000000</i>
    <i type="logical" name="LSORBIT"> F  </i>
    <v name="SAXIS">      0.00000000      0.00000000      1.00000000</v>
    <i type="logical" name="LSPIRAL"> F  </i>
    <v name="QSPIRAL">      0.00000000      0.00000000      0.00000000</v>
    <i type="logical" name="LZEROZ"> F  </i>
   </separator>
   <separator name="electronic exchange-correlation" >
    <i type="logical" name="LASPH"> F  </i>
   </separator>
   <separator name="electronic convergence" >
    <i type="int" name="NELM">    60</i>
    <i type="int" name="NELMDL">     0</i>
    <i type="int" name="NELMIN">     2</i>
    <i name="ENINI">    400.00000000</i>
    <separator name="electronic convergence detail" >
     <i type="logical" name="LDIAG"> T  </i>
     <i type="logical" name="LSUBROT"> F  </i>
     <i name="WEIMIN">      0.00000000</i>
     <i name="EBREAK">      0.00000010</i>
     <i name="DEPER">      0.30000000</i>
     <i type="int" name="NRMM">     4</i>
     <i name="TIME">      0.40000000</i>
    </separator>
   </separator>
   <separator name="electronic mixer" >
    <i name="AMIX">      0.40000000</i>
    <i name="BMIX">      1.00000000</i>
    <i name="AMIN">      0.10000000</i>
    <i name="AMIX_MAG">      1.60000000</i>
    <i name="BMIX_MAG">      1.00000000</i>
    <separator name="electronic mixer details" >
     <i type="int" name="IMIX">     4</i>
     <i type="logical" name="MIXFIRST"> F  </i>
     <i type="int" name="MAXMIX">   -45</i>
     <i name="WC">    100.00000000</i>
     <i type="int" name="INIMIX">     1</i>
     <i type="int" name="MIXPRE">     1</i>
     <i type="int" name="MREMOVE">     5</i>
    </separator>
   </separator>
   <separator name="electronic dipolcorrection" >
    <i type="logical" name="LDIPOL"> T  </i>
    <i type="logical" name="LMONO"> F  </i>
    <i type="int" name="IDIPOL">     3</i>
    <i name="EPSILON">      1.00000000</i>
    <v name="DIPOL">   -100.00000000   -100.00000000   -100.00000000</v>
    <i name="EFIELD">      0.00000000</i>
    <i type="logical" name="LVACPOTAV"> F  </i>
   </separator>
  </separator>
  <separator name="grids" >
   <i type="int" name="NGX">    60</i>
   <i type="int" name="NGY">    60</i>
   <i type="int" name="NGZ">   160</i>
   <i type="int" name="NGXF">   120</i>
   <i type="int" name="NGYF">   120</i>
   <i type="int" name="NGZF">   320</i>
   <i type="logical" name="ADDGRID"> F  </i>
  </separator>
  <separator name="ionic" >
   <i type="int" name="NSW">     0</i>
   <i type="int" name="IBRION">    -1</i>
   <i type="int" name="MDALGO">     0</i>
   <i type="int" name="ISIF">     2</i>
   <i name="PSTRESS">      0.00000000</i>
   <i name="EDIFFG">     -0.03000000</i>
   <i type="int" name="NFREE">     0</i>
   <i name="POTIM">      0.50000000</i>
   <i name="SMASS">     -3.00000000</i>
   <i name="SCALEE">      1.00000000</i>
  </separator>
  <separator name="ionic md" >
   <i name="TEBEG">      0.00010000</i>
   <i name="TEEND">      0.00010000</i>
   <i type="int" name="NBLOCK">     1</i>
   <i type="int" name="KBLOCK">     1</i>
   <i type="int" name="NPACO">   256</i>
   <i name="APACO">     10.00000000</i>
  </separator>
  <separator name="symmetry" >
   <i type="int" name="ISYM">     0</i>
   <i name="SYMPREC">      0.00001000</i>
  </separator>
  <separator name="dos" >
   <i type="int" name="LORBIT">     0</i>
   <v name="RWIGS">     -1.00000000     -1.00000000</v>
   <i type="int" name="NEDOS">   301</i>
   <i name="EMIN">     10.00000000</i>
   <i name="EMAX">    -10.00000000</i>
   <i name="EFERMI">      0.00000000</i>
  </separator>
  <separator name="writing" >
   <i type="int" name="NWRITE">     2</i>
   <i type="logical" name="LWAVE"> F  </i>
   <i type="logical" name="LDOWNSAMPLE"> F  </i>
   <i type="logical" name="LCHARG"> F  </i>
   <i type="logical" name="LPARD"> F  </i>
   <i type="logical" name="LVTOT"> F  </i>
   <i type="logical" name="LVHAR"> F  </i>
   <i type="logical" name="LELF"> F  </i>
   <i type="logical" name="LOPTICS"> F  </i>
   <v name="STM">      0.00000000      0.00000000      0.00000000      0.00000000      0.00000000      0.00000000      0.00000000</v>
  </separator>
  <separator name="performance" >
   <i type="int" name="NPAR">     2</i>
   <i type="int" name="NSIM">     4</i>
   <i type="int" name="NBLK">    -1</i>
   <i type="logical" name="LPLANE"> T  </i>
   <i type="logical" name="LSCALAPACK"> T  </i>
   <i type="logical" name="LSCAAWARE"> F  </i>
   <i type="logical" name="LSCALU"> F  </i>
   <i type="logical" name="LASYNC"> F  </i>
   <i type="logical" name="LORBITALREAL"> F  </i>
  </separator>
  <separator name="miscellaneous" >
   <i type="int" name="IDIOT">     3</i>
   <i type="int" name="PHON_NSTRUCT">    -1</i>
   <i type="logical" name="LMUSIC"> F  </i>
   <v name="POMASS">    196.96600000     16.00000000</v>
   <v name="DARWINR">      0.00000000      0.00000000</v>
   <v name="DARWINV">      1.00000000      1.00000000</v>
   <i type="logical" name="LCORR"> T  </i>
  </separator>
  <i type="logical" name="GGA_COMPAT"> T  </i>
  <i type="logical" name="LBERRY"> F  </i>
  <i type="int" name="ICORELEVEL">     0</i>
  <i type="logical" name="LDAU"> F  </i>
  <i type="int" name="I_CONSTRAINED_M">     0</i>
  <separator name="electronic exchange-correlation" >
   <i type="string" name="GGA    ">PE</i>
   <i type="string" name="XC_C">1</i>
   <i type="int" name="VOSKOWN">     0</i>
   <i type="logical" name="LHFCALC"> F  </i>
   <i type="string" name="PRECFOCK"></i>
   <i type="logical" name="LSYMGRAD"> F  </i>
   <i type="logical" name="LHFONE"> F  </i>
   <i type="logical" name="LRHFCALC"> F  </i>
   <i type="logical" name="LTHOMAS"> F  </i>
   <i type="logical" name="LMODELHF"> F  </i>
   <i type="logical" name="LFOCKACE"> F  </i>
   <i name="ENCUT4O">     -1.00000000</i>
   <i type="int" name="EXXOEP">     0</i>
   <i type="int" name="FOURORBIT">     0</i>
   <i name="AEXX">      0.00000000</i>
   <i name="HFALPHA">      0.00000000</i>
   <i name="MCALPHA">      0.00000000</i>
   <i name="ALDAX">      1.00000000</i>
   <i name="AGGAX">      1.00000000</i>
   <i name="AMGGAX">      1.00000000</i>
   <i name="ALDAC">      1.00000000</i>
   <i name="AGGAC">      1.00000000</i>
   <i name="AMGGAC">      1.00000000</i>
   <i type="int" name="NKREDX">     1</i>
   <i type="int" name="NKREDY">     1</i>
   <i type="int" name="NKREDZ">     1</i>
   <i type="logical" name="SHIFTRED"> F  </i>
   <i type="logical" name="ODDONLY"> F  </i>
   <i type="logical" name="EVENONLY"> F  </i>
   <i type="int" name="LMAXFOCK">     0</i>
   <i type="int" name="NMAXFOCKAE">     0</i>
   <i type="logical" name="LFOCKAEDFT"> F  </i>
   <i name="HFSCREEN">      0.00000000</i>
   <i name="HFSCREENC">      0.00000000</i>
   <i type="int" name="NBANDSGWLOW">     0</i>
  </separator>
  <separator name="vdW DFT" >
   <i type="logical" name="LUSE_VDW"> F  </i>
   <i type="int" name="IVDW_NL">    -1</i>
   <i type="logical" name="LSPIN_VDW"> F  </i>
   <i name="ZAB_VDW">     -0.84910000</i>
   <i name="GAMMA_VDW">      1.39626340</i>
   <i name="ALPHA_VDW">      0.00000000</i>
   <i name="PARAM1">      0.12340000</i>
   <i name="PARAM2">      1.00000000</i>
   <i name="BPARAM">      6.30000000</i>
   <i name="CPARAM">      0.00930000</i>
  </separator>
  <separator name="model GW" >
   <i type="int" name="MODEL_GW">     0</i>
   <i name="MODEL_EPS0">     25.23785031</i>
   <i name="MODEL_ALPHA">      1.00000000</i>
  </separator>
  <separator name="linear response parameters" >
   <i type="logical" name="LEPSILON"> F  </i>
   <i type="logical" name="LRPA"> F  </i>
   <i type="logical" name="LNABLA"> F  </i>
   <i type="logical" name="LVEL"> F  </i>
   <i name="CSHIFT">      0.10000000</i>
   <i name="OMEGAMAX">     -1.00000000</i>
   <i name="DEG_THRESHOLD">      0.00200000</i>
   <i name="RTIME">     -0.10000000</i>
   <i name="WPLASMAI">      0.00000000</i>
   <v name="DFIELD">      0.00000000      0.00000000      0.00000000</v>
   <v name="WPLASMA">      0.00000000      0.00000000      0.00000000      0.00000000      0.00000000      0.00000000      0.00000000      0.00000000      0.00000000</v>
  </separator>
  <separator name="orbital magnetization" >
   <i type="logical" name="NUCIND"> F  </i>
   <v name="MAGPOS">      0.00000000      0.00000000      0.00000000</v>
   <i type="logical" name="LNICSALL"> T  </i>
   <i type="logical" name="ORBITALMAG"> F  </i>
   <i type="logical" name="LMAGBLOCH"> F  </i>
   <i type="logical" name="LCHIMAG"> F  </i>
   <i type="logical" name="LGAUGE"> T  </i>
   <i type="int" name="MAGATOM">     0</i>
   <v name="MAGDIPOL">      0.00000000      0.00000000      0.00000000</v>
   <v name="AVECCONST">      0.00000000      0.00000000      0.00000000</v>
  </separator>
  <separator name="response functions" >
   <i type="logical" name="LALL_IN_ONE"> F  </i>
   <i type="int" name="IALL_IN_ONE">    -1</i>
   <i type="int" name="NBANDS_WAVE">    -1</i>
   <i type="logical" name="LFINITE_TEMPERATURE"> F  </i>
   <i type="logical" name="LADDER"> F  </i>
   <i type="logical" name="LRPAFORCE"> F  </i>
   <i type="logical" name="LFXC"> F  </i>
   <i type="logical" name="LHARTREE"> T  </i>
   <i type="int" name="IBSE">     0</i>
   <v type="int" name="KPOINT">    -1     0     0     0</v>
   <i type="logical" name="LTCTC"> F  </i>
   <i type="logical" name="LTCTE"> F  </i>
   <i type="logical" name="LTETE"> F  </i>
   <i type="logical" name="LTRIPLET"> F  </i>
   <i type="logical" name="LFXCEPS"> F  </i>
   <i type="logical" name="LFXHEG"> F  </i>
   <i type="int" name="NATURALO">     2</i>
   <i type="logical" name="LHOLEGF"> F  </i>
   <i type="logical" name="L2ORDER"> F  </i>
   <i type="logical" name="LDMP1"> F  </i>
   <i type="logical" name="LMP2LT"> F  </i>
   <i type="logical" name="LSMP2LT"> F  </i>
   <i type="logical" name="LGWLF"> F  </i>
   <i name="ENCUTGW">     -1.60000002</i>
   <i name="ENCUTGWSOFT">     -1.60000002</i>
   <i name="ENCUTLF">     -1.00000000</i>
   <i type="logical" name="ESF_SPLINES"> F  </i>
   <i name="ESF_CONV">      0.01000000</i>
   <i type="int" name="ESF_NINTER">    15</i>
   <i type="int" name="LMAXMP2">    -1</i>
   <i name="SCISSOR">      0.00000000</i>
   <i type="int" name="NOMEGA">     0</i>
   <i type="int" name="NOMEGAR">     0</i>
   <i type="int" name="NBANDSGW">    -1</i>
   <i type="int" name="NBANDSO">    -1</i>
   <i type="int" name="NBANDSV">    -1</i>
   <i type="int" name="NELMGW">     1</i>
   <i type="int" name="NELMHF">     1</i>
   <i type="int" name="DIM">     3</i>
   <i type="int" name="IESPILON">     4</i>
   <i type="int" name="ANTIRES">     0</i>
   <i name="OMEGAMAX">    -30.00000000</i>
   <i name="OMEGAMIN">    -30.00000000</i>
   <i name="OMEGATL">   -200.00000000</i>
   <i type="int" name="OMEGAGRID">     0</i>
   <i name="CSHIFT">     -0.10000000</i>
   <i type="logical" name="LSELFENERGY"> F  </i>
   <i type="logical" name="LSPECTRAL"> F  </i>
   <i type="logical" name="LSPECTRALGW"> F  </i>
   <i type="logical" name="LSINGLES"> F  </i>
   <i type="logical" name="LFERMIGW"> F  </i>
   <i type="logical" name="ODDONLYGW"> F  </i>
   <i type="logical" name="EVENONLYGW"> F  </i>
   <i type="int" name="NKREDLFX">     1</i>
   <i type="int" name="NKREDLFY">     1</i>
   <i type="int" name="NKREDLFZ">     1</i>
   <i type="int" name="MAXMEM">  2800</i>
   <i type="int" name="TELESCOPE">     0</i>
   <i type="int" name="NTAUPAR">    -1</i>
   <i type="int" name="NOMEGAPAR">    -1</i>
   <i name="DAMP_NEWTON">      0.80000001</i>
   <i name="LAMBDA">      1.00000000</i>
  </separator>
  <separator name="External order field" >
   <i name="OFIELD_KAPPA">      0.00000000</i>
   <v name="OFIELD_K">      0.00000000      0.00000000      0.00000000</v>
   <i name="OFIELD_Q6_NEAR">      0.00000000</i>
   <i name="OFIELD_Q6_FAR">      0.00000000</i>
   <i name="OFIELD_A">      0.00000000</i>
  </separator>
  <separator name="optional k-points parameters" >
   <i type="int" name="KPOINTS_OPT_MODE">     1</i>
   <i type="logical" name="LKPOINTS_OPT"> F  </i>
  </separator>
 </parameters>
 <atominfo>
  <atoms>      37 </atoms>
  <types>       2 </types>
  <array name="atoms" >
   <dimension dim="1">ion</dimension>
   <field type="string">element</field>
   <field type="int">atomtype</field>
   <set>
    <rc><c>Au</c><c>   1</c></rc>
    <rc><c>Au</c><c>   1</c></rc>
    <rc><c>Au</c><c>   1</c></rc>
    <rc><c>Au</c><c>   1</c></rc>
    <rc><c>Au</c><c>   1</c></rc>
    <rc><c>Au</c><c>   1</c></rc>
    <rc><c>Au</c><c>   1</c></rc>
    <rc><c>Au</c><c>   1</c></rc>
    <rc><c>Au</c><c>   1</c></rc>
    <rc><c>Au</c><c>   1</c></rc>
    <rc><c>Au</c><c>   1</c></rc>
    <rc><c>Au</c><c>   1</c></rc>
    <rc><c>Au</c><c>   1</c></rc>
    <rc><c>Au</c><c>   1</c></rc>
    <rc><c>Au</c><c>   1</c></rc>
    <rc><c>Au</c><c>   1</c></rc>
    <rc><c>Au</c><c>   1</c></rc>
    <rc><c>Au</c><c>   1</c></rc>
    <rc><c>Au</c><c>   1</c></rc>
    <rc><c>Au</c><c>   1</c></rc>
    <rc><c>Au</c><c>   1</c></rc>
    <rc><c>Au</c><c>   1</c></rc>
    <rc><c>Au</c><c>   1</c></rc>
    <rc><c>Au</c><c>   1</c></rc>
    <rc><c>Au</c><c>   1</c></rc>
    <rc><c>Au</c><c>   1</c></rc>
    <rc><c>Au</c><c>   1</c></rc>
    <rc><c>Au</c><c>   1</c></rc>
    <rc><c>Au</c><c>   1</c></rc>
    <rc><c>Au</c><c>   1</c></rc>
    <rc><c>Au</c><c>   1</c></rc>
    <rc><c>Au</c><c>   1</c></rc>
    <rc><c>Au</c><c>   1</c></rc>
    <rc><c>Au</c><c>   1</c></rc>
    <rc><c>Au</c><c>   1</c></rc>
    <rc><c>Au</c><c>   1</c></rc>
    <rc><c>O </c><c>   2</c></rc>
   </set>
  </array>
  <array name="atomtypes" >
   <dimension dim="1">type</dimension>
   <field type="int">atomspertype</field>
   <field type="string">element</field>
   <field>mass</field>
   <field>valence</field>
   <field type="string">pseudopotential</field>
   <set>
    <rc><c>  36</c><c>Au</c><c>    196.96600000</c><c>     11.00000000</c><c>  PAW_PBE Au 04Oct2007                  </c></rc>
    <rc><c>   1</c><c>O </c><c>     16.00000000</c><c>      6.00000000</c><c>  PAW_PBE O 08Apr2002                   </c></rc>
   </set>
  </array>
 </atominfo>
 <structure name="initialpos" >
  <crystal>
   <varray name="basis" >
    <v>       8.80347943       0.00000000       0.00000000 </v>
    <v>       4.40173971       7.62403682       0.00000000 </v>
    <v>       0.00000000       0.00000000      23.18801085 </v>
   </varray>
   <i name="volume">   1556.33410245 </i>
   <varray name="rec_basis" >
    <v>       0.11359145      -0.06558205       0.00000000 </v>
    <v>       0.00000000       0.13116411       0.00000000 </v>
    <v>       0.00000000       0.00000000       0.04312573 </v>
   </varray>
  </crystal>
  <varray name="positions" >
   <v>       0.00000000       0.00000000       0.00000000 </v>
   <v>       0.33333333       0.00000000       0.00000000 </v>
   <v>       0.66666667       0.00000000       0.00000000 </v>
   <v>       0.00000000       0.33333333       0.00000000 </v>
   <v>       0.33333333       0.33333333       0.00000000 </v>
   <v>       0.66666667       0.33333333       0.00000000 </v>
   <v>       0.00000000       0.66666667       0.00000000 </v>
   <v>       0.33333333       0.66666667       0.00000000 </v>
   <v>       0.66666667       0.66666667       0.00000000 </v>
   <v>       0.11111111       0.11111111       0.10332942 </v>
   <v>       0.44444444       0.11111111       0.10332942 </v>
   <v>       0.77777778       0.11111111       0.10332942 </v>
   <v>       0.11111111       0.44444444       0.10332942 </v>
   <v>       0.44444444       0.44444444       0.10332942 </v>
   <v>       0.77777778       0.44444444       0.10332942 </v>
   <v>       0.11111111       0.77777778       0.10332942 </v>
   <v>       0.44444444       0.77777778       0.10332942 </v>
   <v>       0.77777778       0.77777778       0.10332942 </v>
   <v>       0.88949206       0.22336328       0.20701268 </v>
   <v>       0.21999012       0.22224863       0.20839285 </v>
   <v>       0.55402847       0.22131213       0.20569408 </v>
   <v>       0.89019671       0.55250704       0.20672542 </v>
   <v>       0.21956086       0.55583142       0.20566629 </v>
   <v>       0.55397406       0.55564814       0.20456533 </v>
   <v>       0.88818319       0.88981853       0.20477760 </v>
   <v>       0.22148300       0.89144939       0.20698649 </v>
   <v>       0.55051426       0.89227970       0.20669409 </v>
   <v>       0.99795807       0.00077916       0.30857849 </v>
   <v>       0.35489948       0.98660775       0.31447801 </v>
   <v>       0.67206497       0.00181800       0.30975130 </v>
   <v>       0.98287748       0.35817879       0.31475458 </v>
   <v>       0.33504562       0.33835720       0.30923812 </v>
   <v>       0.66294241       0.33554216       0.30887969 </v>
   <v>       0.99906671       0.67484777       0.30977905 </v>
   <v>       0.33263269       0.66609278       0.30884277 </v>
   <v>       0.66479044       0.66809445       0.30690204 </v>
   <v>       0.16699041       0.17003098       0.36922475 </v>
  </varray>
  <varray name="selective"  type="logical" >
   <v type="logical" >  F  F  F </v>
   <v type="logical" >  F  F  F </v>
   <v type="logical" >  F  F  F </v>
   <v type="logical" >  F  F  F </v>
   <v type="logical" >  F  F  F </v>
   <v type="logical" >  F  F  F </v>
   <v type="logical" >  F  F  F </v>
   <v type="logical" >  F  F  F </v>
   <v type="logical" >  F  F  F </v>
   <v type="logical" >  F  F  F </v>
   <v type="logical" >  F  F  F </v>
   <v type="logical" >  F  F  F </v>
   <v type="logical" >  F  F  F </v>
   <v type="logical" >  F  F  F </v>
   <v type="logical" >  F  F  F </v>
   <v type="logical" >  F  F  F </v>
   <v type="logical" >  F  F  F </v>
   <v type="logical" >  F  F  F </v>
   <v type="logical" >  T  T  T </v>
   <v type="logical" >  T  T  T </v>
   <v type="logical" >  T  T  T </v>
   <v type="logical" >  T  T  T </v>
   <v type="logical" >  T  T  T </v>
   <v type="logical" >  T  T  T </v>
   <v type="logical" >  T  T  T </v>
   <v type="logical" >  T  T  T </v>
   <v type="logical" >  T  T  T </v>
   <v type="logical" >  T  T  T </v>
   <v type="logical" >  T  T  T </v>
   <v type="logical" >  T  T  T </v>
   <v type="logical" >  T  T  T </v>
   <v type="logical" >  T  T  T </v>
   <v type="logical" >  T  T  T </v>
   <v type="logical" >  T  T  T </v>
   <v type="logical" >  T  T  T </v>
   <v type="logical" >  T  T  T </v>
   <v type="logical" >  T  T  T </v>
  </varray>
  <nose>
   <v>      -3.00000000       0.00000000       0.00010000       0.00010000 </v>
  </nose>
 </structure>
 <calculation>
  <scstep>
   <time name="dav">    3.79    3.81</time>
   <time name="total">    3.86    3.88</time>
   <dipole>
    <v name="dipole">      0.00000000       0.00000000       0.00012115 </v>
    <i name="Tr[quadrupol]">  -4972.96851288 </i>
    <i name="Echarged">      0.00000000 </i>
    <i name="Edipol_quadrupol">      0.00000000 </i>
    <i name="Eion">      0.00000000 </i>
   </dipole>
   <energy>
    <i name="alphaZ">    990.63736339 </i>
    <i name="ewald"> 112953.98998357 </i>
    <i name="hartreedc">-148272.38138610 </i>
    <i name="XCdc">    577.52746889 </i>
    <i name="pawpsdc">  31814.05959759 </i>
    <i name="pawaedc"> -30984.71300122 </i>
    <i name="eentropy">     -0.00346481 </i>
    <i name="bandstr">   1623.51704586 </i>
    <i name="atom">  33771.16187166 </i>
    <i name="e_fr_energy">   2473.79547882 </i>
    <i name="e_wo_entrp">   2473.79894363 </i>
    <i name="e_0_energy">   2473.79663376 </i>
   </energy>
  </scstep>
  <scstep>
   <time name="dav">    4.14    4.16</time>
   <time name="total">    4.14    4.17</time>
   <dipole>
    <v name="dipole">      0.00000000       0.00000000       0.00012115 </v>
    <i name="Tr[quadrupol]">  -4972.96851288 </i>
    <i name="Echarged">      0.00000000 </i>
    <i name="Edipol_quadrupol">      0.00000000 </i>
    <i name="Eion">      0.00000000 </i>
   </dipole>
   <energy>
    <i name="e_fr_energy">     33.62179770 </i>
    <i name="e_wo_entrp">     33.62242587 </i>
    <i name="e_0_energy">     33.62200709 </i>
   </energy>
  </scstep>
  <scstep>
   <time name="dav">    4.09    4.12</time>
   <time name="total">    4.09    4.12</time>
   <dipole>
    <v name="dipole">      0.00000000       0.00000000       0.00012115 </v>
    <i name="Tr[quadrupol]">  -4972.96851288 </i>
    <i name="Echarged">      0.00000000 </i>
    <i name="Edipol_quadrupol">      0.00000000 </i>
    <i name="Eion">      0.00000000 </i>
   </dipole>
   <energy>
    <i name="e_fr_energy">   -122.81162020 </i>
    <i name="e_wo_entrp">   -122.79962891 </i>
    <i name="e_0_energy">   -122.80762311 </i>
   </energy>
  </scstep>
  <scstep>
   <time name="dav">    4.03    4.05</time>
   <time name="total">    4.03    4.05</time>
   <dipole>
    <v name="dipole">      0.00000000       0.00000000       0.00012115 </v>
    <i name="Tr[quadrupol]">  -4972.96851288 </i>
    <i name="Echarged">      0.00000000 </i>
    <i name="Edipol_quadrupol">      0.00000000 </i>
    <i name="Eion">      0.00000000 </i>
   </dipole>
   <energy>
    <i name="e_fr_energy">   -127.01192906 </i>
    <i name="e_wo_entrp">   -126.99926286 </i>
    <i name="e_0_energy">   -127.00770699 </i>
   </energy>
  </scstep>
  <scstep>
   <time name="dav">    4.21    4.23</time>
   <time name="total">    4.37    4.40</time>
   <dipole>
    <v name="dipole">      0.00000000       0.00000000       0.00012115 </v>
    <i name="Tr[quadrupol]">  -4972.96851288 </i>
    <i name="Echarged">      0.00000000 </i>
    <i name="Edipol_quadrupol">      0.00000000 </i>
    <i name="Eion">      0.00000000 </i>
   </dipole>
   <energy>
    <i name="e_fr_energy">   -127.16247394 </i>
    <i name="e_wo_entrp">   -127.14977274 </i>
    <i name="e_0_energy">   -127.15824020 </i>
   </energy>
  </scstep>
  <scstep>
   <time name="diag">    0.58    0.58</time>
   <time name="diis">    2.34    2.36</time>
   <time name="orth">    0.09    0.09</time>
   <time name="total">    3.22    3.24</time>
   <dipole>
    <v name="dipole">      0.00000000       0.00000000       0.63340310 </v>
    <i name="Tr[quadrupol]">  -4969.28204844 </i>
    <i name="Echarged">      0.00000000 </i>
    <i name="Edipol_quadrupol">      0.00000000 </i>
    <i name="Eion">      0.00000000 </i>
   </dipole>
   <energy>
    <i name="e_fr_energy">   -121.89029430 </i>
    <i name="e_wo_entrp">   -121.89655822 </i>
    <i name="e_0_energy">   -121.89238227 </i>
   </energy>
  </scstep>
  <scstep>
   <time name="diag">    0.58    0.58</time>
   <time name="diis">    2.53    2.54</time>
   <time name="orth">    0.09    0.09</time>
   <time name="total">    3.40    3.42</time>
   <dipole>
    <v name="dipole">      0.00000000       0.00000000      -1.46941269 </v>
    <i name="Tr[quadrupol]">  -4970.19395783 </i>
    <i name="Echarged">      0.00000000 </i>
    <i name="Edipol_quadrupol">      0.00000000 </i>
    <i name="Eion">      0.00000000 </i>
   </dipole>
   <energy>
    <i name="e_fr_energy">   -133.81573845 </i>
    <i name="e_wo_entrp">   -133.82688778 </i>
    <i name="e_0_energy">   -133.81945490 </i>
   </energy>
  </scstep>
  <scstep>
   <time name="diag">    0.57    0.57</time>
   <time name="diis">    2.57    2.58</time>
   <time name="orth">    0.09    0.09</time>
   <time name="total">    3.44    3.45</time>
   <dipole>
    <v name="dipole">      0.00000000       0.00000000       1.76870986 </v>
    <i name="Tr[quadrupol]">  -4973.35401182 </i>
    <i name="Echarged">      0.00000000 </i>
    <i name="Edipol_quadrupol">      0.00000000 </i>
    <i name="Eion">      0.00000000 </i>
   </dipole>
   <energy>
    <i name="e_fr_energy">   -137.85920348 </i>
    <i name="e_wo_entrp">   -137.87159118 </i>
    <i name="e_0_energy">   -137.86333271 </i>
   </energy>
  </scstep>
  <scstep>
   <time name="diag">    0.58    0.58</time>
   <time name="diis">    2.47    2.48</time>
   <time name="orth">    0.09    0.09</time>
   <time name="total">    3.34    3.35</time>
   <dipole>
    <v name="dipole">      0.00000000       0.00000000      -0.17097406 </v>
    <i name="Tr[quadrupol]">  -4971.63590557 </i>
    <i name="Echarged">      0.00000000 </i>
    <i name="Edipol_quadrupol">      0.00000000 </i>
    <i name="Eion">      0.00000000 </i>
   </dipole>
   <energy>
    <i name="e_fr_energy">   -118.76826043 </i>
    <i name="e_wo_entrp">   -118.74983184 </i>
    <i name="e_0_energy">   -118.76211756 </i>
   </energy>
  </scstep>
  <scstep>
   <time name="diag">    0.57    0.58</time>
   <time name="diis">    2.48    2.49</time>
   <time name="orth">    0.09    0.09</time>
   <time name="total">    3.35    3.36</time>
   <dipole>
    <v name="dipole">      0.00000000       0.00000000      -0.03013681 </v>
    <i name="Tr[quadrupol]">  -4968.28697131 </i>
    <i name="Echarged">      0.00000000 </i>
    <i name="Edipol_quadrupol">      0.00000000 </i>
    <i name="Eion">      0.00000000 </i>
   </dipole>
   <energy>
    <i name="e_fr_energy">   -115.18941199 </i>
    <i name="e_wo_entrp">   -115.17200034 </i>
    <i name="e_0_energy">   -115.18360810 </i>
   </energy>
  </scstep>
  <scstep>
   <time name="diag">    0.57    0.60</time>
   <time name="diis">    2.47    2.48</time>
   <time name="orth">    0.09    0.09</time>
   <time name="total">    3.34    3.38</time>
   <dipole>
    <v name="dipole">      0.00000000       0.00000000       0.11901733 </v>
    <i name="Tr[quadrupol]">  -4968.36129022 </i>
    <i name="Echarged">      0.00000000 </i>
    <i name="Edipol_quadrupol">      0.00000000 </i>
    <i name="Eion">      0.00000000 </i>
   </dipole>
   <energy>
    <i name="e_fr_energy">   -115.17803423 </i>
    <i name="e_wo_entrp">   -115.17160229 </i>
    <i name="e_0_energy">   -115.17589025 </i>
   </energy>
  </scstep>
  <scstep>
   <time name="diag">    0.58    0.58</time>
   <time name="diis">    2.45    2.46</time>
   <time name="orth">    0.08    0.09</time>
   <time name="total">    3.31    3.33</time>
   <dipole>
    <v name="dipole">      0.00000000       0.00000000       0.12440155 </v>
    <i name="Tr[quadrupol]">  -4969.60562422 </i>
    <i name="Echarged">      0.00000000 </i>
    <i name="Edipol_quadrupol">      0.00000000 </i>
    <i name="Eion">      0.00000000 </i>
   </dipole>
   <energy>
    <i name="e_fr_energy">   -115.03344546 </i>
    <i name="e_wo_entrp">   -115.02822161 </i>
    <i name="e_0_energy">   -115.03170418 </i>
   </energy>
  </scstep>
  <scstep>
   <time name="diag">    0.57    0.58</time>
   <time name="diis">    2.38    2.39</time>
   <time name="orth">    0.09    0.09</time>
   <time name="total">    3.25    3.26</time>
   <dipole>
    <v name="dipole">      0.00000000       0.00000000       0.11845795 </v>
    <i name="Tr[quadrupol]">  -4969.24709971 </i>
    <i name="Echarged">      0.00000000 </i>
    <i name="Edipol_quadrupol">      0.00000000 </i>
    <i name="Eion">      0.00000000 </i>
   </dipole>
   <energy>
    <i name="e_fr_energy">   -114.89168747 </i>
    <i name="e_wo_entrp">   -114.87705654 </i>
    <i name="e_0_energy">   -114.88681049 </i>
   </energy>
  </scstep>
  <scstep>
   <time name="diag">    0.57    0.58</time>
   <time name="diis">    2.48    2.49</time>
   <time name="orth">    0.08    0.08</time>
   <time name="total">    3.35    3.36</time>
   <dipole>
    <v name="dipole">      0.00000000       0.00000000       0.13496335 </v>
    <i name="Tr[quadrupol]">  -4968.93839395 </i>
    <i name="Echarged">      0.00000000 </i>
    <i name="Edipol_quadrupol">      0.00000000 </i>
    <i name="Eion">      0.00000000 </i>
   </dipole>
   <energy>
    <i name="e_fr_energy">   -114.78570267 </i>
    <i name="e_wo_entrp">   -114.75846073 </i>
    <i name="e_0_energy">   -114.77662202 </i>
   </energy>
  </scstep>
  <scstep>
   <time name="diag">    0.57    0.58</time>
   <time name="diis">    2.48    2.50</time>
   <time name="orth">    0.09    0.09</time>
   <time name="total">    3.35    3.37</time>
   <dipole>
    <v name="dipole">      0.00000000       0.00000000       0.14460779 </v>
    <i name="Tr[quadrupol]">  -4968.93396332 </i>
    <i name="Echarged">      0.00000000 </i>
    <i name="Edipol_quadrupol">      0.00000000 </i>
    <i name="Eion">      0.00000000 </i>
   </dipole>
   <energy>
    <i name="e_fr_energy">   -114.78554064 </i>
    <i name="e_wo_entrp">   -114.75771476 </i>
    <i name="e_0_energy">   -114.77626535 </i>
   </energy>
  </scstep>
  <scstep>
   <time name="diag">    0.58    0.58</time>
   <time name="diis">    2.43    2.44</time>
   <time name="orth">    0.08    0.09</time>
   <time name="total">    3.30    3.31</time>
   <dipole>
    <v name="dipole">      0.00000000       0.00000000       0.13769024 </v>
    <i name="Tr[quadrupol]">  -4969.03779642 </i>
    <i name="Echarged">      0.00000000 </i>
    <i name="Edipol_quadrupol">      0.00000000 </i>
    <i name="Eion">      0.00000000 </i>
   </dipole>
   <energy>
    <i name="e_fr_energy">   -114.78832513 </i>
    <i name="e_wo_entrp">   -114.76123487 </i>
    <i name="e_0_energy">   -114.77929504 </i>
   </energy>
  </scstep>
  <scstep>
   <time name="diag">    0.57    0.58</time>
   <time name="diis">    2.43    2.45</time>
   <time name="orth">    0.08    0.09</time>
   <time name="total">    3.30    3.32</time>
   <dipole>
    <v name="dipole">      0.00000000       0.00000000       0.14141238 </v>
    <i name="Tr[quadrupol]">  -4969.02612736 </i>
    <i name="Echarged">      0.00000000 </i>
    <i name="Edipol_quadrupol">      0.00000000 </i>
    <i name="Eion">      0.00000000 </i>
   </dipole>
   <energy>
    <i name="e_fr_energy">   -114.78803510 </i>
    <i name="e_wo_entrp">   -114.76038746 </i>
    <i name="e_0_energy">   -114.77881922 </i>
   </energy>
  </scstep>
  <scstep>
   <time name="diag">    0.57    0.58</time>
   <time name="diis">    1.70    1.71</time>
   <time name="orth">    0.09    0.09</time>
   <time name="total">    2.57    2.58</time>
   <dipole>
    <v name="dipole">      0.00000000       0.00000000       0.14374776 </v>
    <i name="Tr[quadrupol]">  -4969.02359328 </i>
    <i name="Echarged">      0.00000000 </i>
    <i name="Edipol_quadrupol">      0.00000000 </i>
    <i name="Eion">      0.00000000 </i>
   </dipole>
   <energy>
    <i name="e_fr_energy">   -114.78826005 </i>
    <i name="e_wo_entrp">   -114.76058793 </i>
    <i name="e_0_energy">   -114.77903601 </i>
   </energy>
  </scstep>
  <scstep>
   <time name="diag">    0.57    0.58</time>
   <time name="diis">    1.69    1.70</time>
   <time name="orth">    0.09    0.09</time>
   <time name="total">    2.56    2.57</time>
   <dipole>
    <v name="dipole">      0.00000000       0.00000000       0.14004034 </v>
    <i name="Tr[quadrupol]">  -4968.80547955 </i>
    <i name="Echarged">      0.00000000 </i>
    <i name="Edipol_quadrupol">      0.00000000 </i>
    <i name="Eion">      0.00000000 </i>
   </dipole>
   <energy>
    <i name="e_fr_energy">   -114.78899177 </i>
    <i name="e_wo_entrp">   -114.76135365 </i>
    <i name="e_0_energy">   -114.77977906 </i>
   </energy>
  </scstep>
  <scstep>
   <time name="diag">    0.57    0.58</time>
   <time name="diis">    1.59    1.59</time>
   <time name="orth">    0.09    0.09</time>
   <time name="total">    2.45    2.47</time>
   <dipole>
    <v name="dipole">      0.00000000       0.00000000       0.14579892 </v>
    <i name="Tr[quadrupol]">  -4968.71388738 </i>
    <i name="Echarged">      0.00000000 </i>
    <i name="Edipol_quadrupol">      0.00000000 </i>
    <i name="Eion">      0.00000000 </i>
   </dipole>
   <energy>
    <i name="e_fr_energy">   -114.78925074 </i>
    <i name="e_wo_entrp">   -114.76150253 </i>
    <i name="e_0_energy">   -114.78000134 </i>
   </energy>
  </scstep>
  <scstep>
   <time name="diag">    0.58    0.58</time>
   <time name="diis">    1.49    1.50</time>
   <time name="orth">    0.09    0.09</time>
   <time name="total">    2.37    2.38</time>
   <dipole>
    <v name="dipole">      0.00000000       0.00000000       0.14914245 </v>
    <i name="Tr[quadrupol]">  -4968.65922955 </i>
    <i name="Echarged">      0.00000000 </i>
    <i name="Edipol_quadrupol">      0.00000000 </i>
    <i name="Eion">      0.00000000 </i>
   </dipole>
   <energy>
    <i name="e_fr_energy">   -114.78941340 </i>
    <i name="e_wo_entrp">   -114.76170491 </i>
    <i name="e_0_energy">   -114.78017723 </i>
   </energy>
  </scstep>
  <scstep>
   <time name="diag">    0.58    0.58</time>
   <time name="diis">    1.15    1.16</time>
   <time name="orth">    0.09    0.09</time>
   <time name="total">    1.87    1.88</time>
   <dipole>
    <v name="dipole">      0.00000000       0.00000000       0.15072347 </v>
    <i name="Tr[quadrupol]">  -4968.64637300 </i>
    <i name="Echarged">      0.00000000 </i>
    <i name="Edipol_quadrupol">      0.00000000 </i>
    <i name="Eion">      0.00000000 </i>
   </dipole>
   <energy>
    <i name="alphaZ">    991.34621766 </i>
    <i name="ewald"> 112953.98998357 </i>
    <i name="hartreedc">-147776.80017389 </i>
    <i name="XCdc">    561.06061222 </i>
    <i name="pawpsdc">  36801.98355521 </i>
    <i name="pawaedc"> -36054.23826136 </i>
    <i name="eentropy">     -0.02769296 </i>
    <i name="bandstr">  -1363.26557960 </i>
    <i name="atom">  33771.16187166 </i>
    <i name="e_fr_energy">   -114.78946749 </i>
    <i name="e_wo_entrp">   -114.76177454 </i>
    <i name="e_0_energy">   -114.78023651 </i>
   </energy>
  </scstep>
  <structure>
   <crystal>
    <varray name="basis" >
     <v>       8.80347943       0.00000000       0.00000000 </v>
     <v>       4.40173971       7.62403682       0.00000000 </v>
     <v>       0.00000000       0.00000000      23.18801085 </v>
    </varray>
    <i name="volume">   1556.33410245 </i>
    <varray name="rec_basis" >
     <v>       0.11359145      -0.06558205       0.00000000 </v>
     <v>       0.00000000       0.13116411       0.00000000 </v>
     <v>       0.00000000       0.00000000       0.04312573 </v>
    </varray>
   </crystal>
   <varray name="positions" >
    <v>       0.00000000       0.00000000       0.00000000 </v>
    <v>       0.33333333       0.00000000       0.00000000 </v>
    <v>       0.66666667       0.00000000       0.00000000 </v>
    <v>       0.00000000       0.33333333       0.00000000 </v>
    <v>       0.33333333       0.33333333       0.00000000 </v>
    <v>       0.66666667       0.33333333       0.00000000 </v>
    <v>       0.00000000       0.66666667       0.00000000 </v>
    <v>       0.33333333       0.66666667       0.00000000 </v>
    <v>       0.66666667       0.66666667       0.00000000 </v>
    <v>       0.11111111       0.11111111       0.10332942 </v>
    <v>       0.44444444       0.11111111       0.10332942 </v>
    <v>       0.77777778       0.11111111       0.10332942 </v>
    <v>       0.11111111       0.44444444       0.10332942 </v>
    <v>       0.44444444       0.44444444       0.10332942 </v>
    <v>       0.77777778       0.44444444       0.10332942 </v>
    <v>       0.11111111       0.77777778       0.10332942 </v>
    <v>       0.44444444       0.77777778       0.10332942 </v>
    <v>       0.77777778       0.77777778       0.10332942 </v>
    <v>       0.88949206       0.22336328       0.20701268 </v>
    <v>       0.21999012       0.22224863       0.20839285 </v>
    <v>       0.55402847       0.22131213       0.20569408 </v>
    <v>       0.89019671       0.55250704       0.20672542 </v>
    <v>       0.21956086       0.55583142       0.20566629 </v>
    <v>       0.55397406       0.55564814       0.20456533 </v>
    <v>       0.88818319       0.88981853       0.20477760 </v>
    <v>       0.22148300       0.89144939       0.20698649 </v>
    <v>       0.55051426       0.89227970       0.20669409 </v>
    <v>       0.99795807       0.00077916       0.30857849 </v>
    <v>       0.35489948       0.98660775       0.31447801 </v>
    <v>       0.67206497       0.00181800       0.30975130 </v>
    <v>       0.98287748       0.35817879       0.31475458 </v>
    <v>       0.33504562       0.33835720       0.30923812 </v>
    <v>       0.66294241       0.33554216       0.30887969 </v>
    <v>       0.99906671       0.67484777       0.30977905 </v>
    <v>       0.33263269       0.66609278       0.30884277 </v>
    <v>       0.66479044       0.66809445       0.30690204 </v>
    <v>       0.16699041       0.17003098       0.36922475 </v>
   </varray>
  </structure>
  <varray name="forces" >
   <v>       0.00308671       0.00094258      -0.05652473 </v>
   <v>      -0.01155702       0.01805623      -0.06001215 </v>
   <v>       0.01672910      -0.01103182      -0.07729909 </v>
   <v>       0.01011297      -0.02000672      -0.05984921 </v>
   <v>      -0.00097887      -0.00115612      -0.05471440 </v>
   <v>       0.01113990      -0.01552485      -0.04727125 </v>
   <v>      -0.00046016       0.01977522      -0.07592179 </v>
   <v>      -0.00784563       0.01717343      -0.04741844 </v>
   <v>       0.01537006       0.00876586      -0.04656597 </v>
   <v>       0.02844081       0.02183649       0.10652892 </v>
   <v>      -0.00999029       0.00749048       0.07652333 </v>
   <v>      -0.01760187       0.06705946       0.04315965 </v>
   <v>      -0.00311236      -0.00766841       0.07878222 </v>
   <v>      -0.02577810      -0.01090997      -0.01150886 </v>
   <v>       0.00331275      -0.00457262       0.00826073 </v>
   <v>       0.04617547      -0.04126379       0.04236343 </v>
   <v>      -0.00529319       0.01272025       0.00642964 </v>
   <v>      -0.06425000      -0.03233845       0.16040431 </v>
   <v>       0.00466305      -0.00101065       0.00428446 </v>
   <v>      -0.00359411      -0.00496578       0.01888462 </v>
   <v>       0.00285222      -0.00084032      -0.01363128 </v>
   <v>      -0.00562407       0.00276137       0.00560725 </v>
   <v>       0.00122807       0.00289695      -0.01288516 </v>
   <v>       0.00740957       0.00372329       0.01628503 </v>
   <v>       0.00311441       0.00250764       0.01373232 </v>
   <v>       0.00294553       0.00100811       0.00344680 </v>
   <v>       0.00117694      -0.01097195       0.00325223 </v>
   <v>       0.00203288      -0.00062032       0.02577842 </v>
   <v>       0.03090912       0.00405364      -0.00737282 </v>
   <v>       0.01449190       0.00551531      -0.00082180 </v>
   <v>       0.02256979       0.02253252      -0.01222753 </v>
   <v>       0.00683049       0.00003146      -0.02443242 </v>
   <v>       0.02012101       0.00303984      -0.00781043 </v>
   <v>       0.00986146       0.00783071      -0.00188925 </v>
   <v>       0.01393472       0.01125965      -0.00540355 </v>
   <v>       0.01457575       0.00271617       0.00578146 </v>
   <v>      -0.13699902      -0.08081486       0.00405533 </v>
  </varray>
  <varray name="stress" >
   <v>     -16.95500995      -1.08549530      -0.25689230 </v>
   <v>      -1.08549531     -15.65520363      -0.26751346 </v>
   <v>      -0.25689227      -0.26751342      -0.11675435 </v>
  </varray>
  <energy>
   <i name="e_fr_energy">   -114.78946749 </i>
   <i name="e_wo_entrp">   -114.76177454 </i>
   <i name="e_0_energy">   -114.78023651 </i>
  </energy>
  <time name="totalsc">   75.36   75.77</time>
  <eigenvalues>
   <array>
    <dimension dim="1">band</dimension>
    <dimension dim="2">kpoint</dimension>
    <dimension dim="3">spin</dimension>
    <field>eigene</field>
    <field>occ</field>
    <set>
     <set comment="spin 1">
      <set comment="kpoint 1">
       <r>  -16.9002    1.0000 </r>
       <r>   -8.2436    1.0000 </r>
       <r>   -7.1061    1.0000 </r>
       <r>   -6.8924    1.0000 </r>
       <r>   -6.4247    1.0000 </r>
       <r>   -6.3918    1.0000 </r>
       <r>   -6.1522    1.0000 </r>
       <r>   -6.1111    1.0000 </r>
       <r>   -6.1012    1.0000 </r>
       <r>   -6.0289    1.0000 </r>
       <r>   -6.0224    1.0000 </r>
       <r>   -5.9882    1.0000 </r>
       <r>   -5.8706    1.0000 </r>
       <r>   -5.8094    1.0000 </r>
       <r>   -5.7099    1.0000 </r>
       <r>   -5.7066    1.0000 </r>
       <r>   -5.6735    1.0000 </r>
       <r>   -5.5449    1.0000 </r>
       <r>   -5.4737    1.0000 </r>
       <r>   -5.4544    1.0000 </r>
       <r>   -5.4092    1.0000 </r>
       <r>   -5.3893    1.0000 </r>
       <r>   -5.3606    1.0000 </r>
       <r>   -5.3073    1.0000 </r>
       <r>   -5.2969    1.0000 </r>
       <r>   -5.2897    1.0000 </r>
       <r>   -5.2819    1.0000 </r>
       <r>   -5.2787    1.0000 </r>
       <r>   -5.2584    1.0000 </r>
       <r>   -5.2406    1.0000 </r>
       <r>   -5.2229    1.0000 </r>
       <r>   -5.1361    1.0000 </r>
       <r>   -5.0907    1.0000 </r>
       <r>   -5.0634    1.0000 </r>
       <r>   -5.0539    1.0000 </r>
       <r>   -5.0103    1.0000 </r>
       <r>   -4.9663    1.0000 </r>
       <r>   -4.9054    1.0000 </r>
       <r>   -4.8982    1.0000 </r>
       <r>   -4.8624    1.0000 </r>
       <r>   -4.8444    1.0000 </r>
       <r>   -4.8262    1.0000 </r>
       <r>   -4.7372    1.0000 </r>
       <r>   -4.7053    1.0000 </r>
       <r>   -4.6869    1.0000 </r>
       <r>   -4.6308    1.0000 </r>
       <r>   -4.6189    1.0000 </r>
       <r>   -4.5867    1.0000 </r>
       <r>   -4.5115    1.0000 </r>
       <r>   -4.4495    1.0000 </r>
       <r>   -4.4442    1.0000 </r>
       <r>   -4.4027    1.0000 </r>
       <r>   -4.3758    1.0000 </r>
       <r>   -4.3675    1.0000 </r>
       <r>   -4.3467    1.0000 </r>
       <r>   -4.2880    1.0000 </r>
       <r>   -4.2358    1.0000 </r>
       <r>   -4.1848    1.0000 </r>
       <r>   -4.1821    1.0000 </r>
       <r>   -4.1303    1.0000 </r>
       <r>   -4.1076    1.0000 </r>
       <r>   -4.0784    1.0000 </r>
       <r>   -4.0684    1.0000 </r>
       <r>   -4.0309    1.0000 </r>
       <r>   -4.0148    1.0000 </r>
       <r>   -3.9816    1.0000 </r>
       <r>   -3.9810    1.0000 </r>
       <r>   -3.9518    1.0000 </r>
       <r>   -3.9322    1.0000 </r>
       <r>   -3.9238    1.0000 </r>
       <r>   -3.8513    1.0000 </r>
       <r>   -3.8242    1.0000 </r>
       <r>   -3.8209    1.0000 </r>
       <r>   -3.7769    1.0000 </r>
       <r>   -3.7698    1.0000 </r>
       <r>   -3.7376    1.0000 </r>
       <r>   -3.7220    1.0000 </r>
       <r>   -3.7139    1.0000 </r>
       <r>   -3.6879    1.0000 </r>
       <r>   -3.6672    1.0000 </r>
       <r>   -3.6612    1.0000 </r>
       <r>   -3.6540    1.0000 </r>
       <r>   -3.6438    1.0000 </r>
       <r>   -3.6314    1.0000 </r>
       <r>   -3.6245    1.0000 </r>
       <r>   -3.6014    1.0000 </r>
       <r>   -3.5709    1.0000 </r>
       <r>   -3.5541    1.0000 </r>
       <r>   -3.5333    1.0000 </r>
       <r>   -3.5285    1.0000 </r>
       <r>   -3.5131    1.0000 </r>
       <r>   -3.5007    1.0000 </r>
       <r>   -3.4601    1.0000 </r>
       <r>   -3.4368    1.0000 </r>
       <r>   -3.4231    1.0000 </r>
       <r>   -3.3928    1.0000 </r>
       <r>   -3.3872    1.0000 </r>
       <r>   -3.3750    1.0000 </r>
       <r>   -3.3629    1.0000 </r>
       <r>   -3.3034    1.0000 </r>
       <r>   -3.2953    1.0000 </r>
       <r>   -3.2863    1.0000 </r>
       <r>   -3.2517    1.0000 </r>
       <r>   -3.2269    1.0000 </r>
       <r>   -3.2192    1.0000 </r>
       <r>   -3.2015    1.0000 </r>
       <r>   -3.1727    1.0000 </r>
       <r>   -3.1430    1.0000 </r>
       <r>   -3.1277    1.0000 </r>
       <r>   -3.1061    1.0000 </r>
       <r>   -3.0615    1.0000 </r>
       <r>   -3.0428    1.0000 </r>
       <r>   -2.9938    1.0000 </r>
       <r>   -2.9908    1.0000 </r>
       <r>   -2.9662    1.0000 </r>
       <r>   -2.8776    1.0000 </r>
       <r>   -2.8486    1.0000 </r>
       <r>   -2.8429    1.0000 </r>
       <r>   -2.8297    1.0000 </r>
       <r>   -2.8159    1.0000 </r>
       <r>   -2.8142    1.0000 </r>
       <r>   -2.7933    1.0000 </r>
       <r>   -2.7850    1.0000 </r>
       <r>   -2.7328    1.0000 </r>
       <r>   -2.6802    1.0000 </r>
       <r>   -2.6747    1.0000 </r>
       <r>   -2.6603    1.0000 </r>
       <r>   -2.6339    1.0000 </r>
       <r>   -2.6278    1.0000 </r>
       <r>   -2.6052    1.0000 </r>
       <r>   -2.5797    1.0000 </r>
       <r>   -2.5084    1.0000 </r>
       <r>   -2.4581    1.0000 </r>
       <r>   -2.4409    1.0000 </r>
       <r>   -2.4341    1.0000 </r>
       <r>   -2.4172    1.0000 </r>
       <r>   -2.3758    1.0000 </r>
       <r>   -2.3616    1.0000 </r>
       <r>   -2.3478    1.0000 </r>
       <r>   -2.3334    1.0000 </r>
       <r>   -2.2772    1.0000 </r>
       <r>   -2.2693    1.0000 </r>
       <r>   -2.2564    1.0000 </r>
       <r>   -2.2382    1.0000 </r>
       <r>   -2.2289    1.0000 </r>
       <r>   -2.1576    1.0000 </r>
       <r>   -2.1519    1.0000 </r>
       <r>   -2.1230    1.0000 </r>
       <r>   -2.1063    1.0000 </r>
       <r>   -2.0850    1.0000 </r>
       <r>   -2.0642    1.0000 </r>
       <r>   -2.0511    1.0000 </r>
       <r>   -2.0316    1.0000 </r>
       <r>   -2.0242    1.0000 </r>
       <r>   -2.0106    1.0000 </r>
       <r>   -2.0078    1.0000 </r>
       <r>   -1.9858    1.0000 </r>
       <r>   -1.9569    1.0000 </r>
       <r>   -1.9366    1.0000 </r>
       <r>   -1.9109    1.0000 </r>
       <r>   -1.8416    1.0000 </r>
       <r>   -1.8147    1.0000 </r>
       <r>   -1.8131    1.0000 </r>
       <r>   -1.7671    1.0000 </r>
       <r>   -1.7590    1.0000 </r>
       <r>   -1.7127    1.0000 </r>
       <r>   -1.6996    1.0000 </r>
       <r>   -1.6881    1.0000 </r>
       <r>   -1.6788    1.0000 </r>
       <r>   -1.6712    1.0000 </r>
       <r>   -1.6604    1.0000 </r>
       <r>   -1.6491    1.0000 </r>
       <r>   -1.6420    1.0000 </r>
       <r>   -1.6011    1.0000 </r>
       <r>   -1.5985    1.0000 </r>
       <r>   -1.5850    1.0000 </r>
       <r>   -1.5762    1.0000 </r>
       <r>   -1.5745    1.0000 </r>
       <r>   -1.5553    1.0000 </r>
       <r>   -1.5364    1.0000 </r>
       <r>   -1.5150    1.0000 </r>
       <r>   -1.5131    1.0000 </r>
       <r>   -1.4568    1.0000 </r>
       <r>   -1.4252    1.0000 </r>
       <r>   -1.4183    1.0000 </r>
       <r>   -1.4031    1.0000 </r>
       <r>   -1.3719    1.0000 </r>
       <r>   -1.3676    1.0000 </r>
       <r>   -1.2675    1.0000 </r>
       <r>   -1.2277    1.0000 </r>
       <r>   -1.0981    1.0000 </r>
       <r>   -0.9634    1.0000 </r>
       <r>   -0.9338    1.0000 </r>
       <r>   -0.8615    1.0000 </r>
       <r>   -0.7024    1.0000 </r>
       <r>   -0.6446    1.0000 </r>
       <r>   -0.6353    1.0000 </r>
       <r>   -0.5648    1.0000 </r>
       <r>   -0.4165    1.0000 </r>
       <r>   -0.2408    1.0000 </r>
       <r>    0.0698    1.0000 </r>
       <r>    0.0907    1.0000 </r>
       <r>    0.4483    0.3700 </r>
       <r>    0.7844   -0.0000 </r>
       <r>    0.9431   -0.0000 </r>
       <r>    1.2288   -0.0000 </r>
       <r>    1.3227   -0.0000 </r>
       <r>    1.5998   -0.0000 </r>
       <r>    1.7587   -0.0000 </r>
       <r>    1.7755   -0.0000 </r>
       <r>    1.9141   -0.0000 </r>
       <r>    2.0877   -0.0000 </r>
       <r>    2.6876    0.0000 </r>
       <r>    2.8419    0.0000 </r>
       <r>    2.8981    0.0000 </r>
       <r>    3.0379    0.0000 </r>
       <r>    3.4371    0.0000 </r>
       <r>    3.5154    0.0000 </r>
       <r>    3.5584    0.0000 </r>
       <r>    3.9140    0.0000 </r>
       <r>    4.0109    0.0000 </r>
       <r>    4.0417    0.0000 </r>
       <r>    4.3163    0.0000 </r>
       <r>    4.4916    0.0000 </r>
       <r>    4.5300    0.0000 </r>
       <r>    4.8424    0.0000 </r>
       <r>    4.8716    0.0000 </r>
       <r>    5.0290    0.0000 </r>
       <r>    5.1654    0.0000 </r>
       <r>    5.1901    0.0000 </r>
       <r>    5.2850    0.0000 </r>
       <r>    5.5031    0.0000 </r>
       <r>    5.5386    0.0000 </r>
       <r>    5.7194    0.0000 </r>
       <r>    5.8266    0.0000 </r>
       <r>    5.9496    0.0000 </r>
       <r>    6.0655    0.0000 </r>
       <r>    6.1454    0.0000 </r>
       <r>    6.4349    0.0000 </r>
       <r>    6.5950    0.0000 </r>
       <r>    6.7760    0.0000 </r>
       <r>    6.9321    0.0000 </r>
      </set>
      <set comment="kpoint 2">
       <r>  -16.9000    1.0000 </r>
       <r>   -8.2446    1.0000 </r>
       <r>   -7.1124    1.0000 </r>
       <r>   -6.8972    1.0000 </r>
       <r>   -6.4198    1.0000 </r>
       <r>   -6.3946    1.0000 </r>
       <r>   -6.1701    1.0000 </r>
       <r>   -6.1165    1.0000 </r>
       <r>   -6.1019    1.0000 </r>
       <r>   -6.0322    1.0000 </r>
       <r>   -6.0149    1.0000 </r>
       <r>   -5.9856    1.0000 </r>
       <r>   -5.8715    1.0000 </r>
       <r>   -5.7871    1.0000 </r>
       <r>   -5.7131    1.0000 </r>
       <r>   -5.6959    1.0000 </r>
       <r>   -5.6722    1.0000 </r>
       <r>   -5.5558    1.0000 </r>
       <r>   -5.4677    1.0000 </r>
       <r>   -5.4348    1.0000 </r>
       <r>   -5.4086    1.0000 </r>
       <r>   -5.3953    1.0000 </r>
       <r>   -5.3641    1.0000 </r>
       <r>   -5.3219    1.0000 </r>
       <r>   -5.3034    1.0000 </r>
       <r>   -5.2874    1.0000 </r>
       <r>   -5.2806    1.0000 </r>
       <r>   -5.2633    1.0000 </r>
       <r>   -5.2591    1.0000 </r>
       <r>   -5.2311    1.0000 </r>
       <r>   -5.2253    1.0000 </r>
       <r>   -5.1304    1.0000 </r>
       <r>   -5.0916    1.0000 </r>
       <r>   -5.0557    1.0000 </r>
       <r>   -5.0372    1.0000 </r>
       <r>   -5.0147    1.0000 </r>
       <r>   -4.9607    1.0000 </r>
       <r>   -4.9221    1.0000 </r>
       <r>   -4.8918    1.0000 </r>
       <r>   -4.8719    1.0000 </r>
       <r>   -4.8431    1.0000 </r>
       <r>   -4.7942    1.0000 </r>
       <r>   -4.7383    1.0000 </r>
       <r>   -4.7238    1.0000 </r>
       <r>   -4.6827    1.0000 </r>
       <r>   -4.6445    1.0000 </r>
       <r>   -4.6177    1.0000 </r>
       <r>   -4.5923    1.0000 </r>
       <r>   -4.5569    1.0000 </r>
       <r>   -4.4704    1.0000 </r>
       <r>   -4.4450    1.0000 </r>
       <r>   -4.4178    1.0000 </r>
       <r>   -4.3906    1.0000 </r>
       <r>   -4.3593    1.0000 </r>
       <r>   -4.3467    1.0000 </r>
       <r>   -4.2541    1.0000 </r>
       <r>   -4.2318    1.0000 </r>
       <r>   -4.1977    1.0000 </r>
       <r>   -4.1750    1.0000 </r>
       <r>   -4.1393    1.0000 </r>
       <r>   -4.1059    1.0000 </r>
       <r>   -4.0928    1.0000 </r>
       <r>   -4.0629    1.0000 </r>
       <r>   -4.0201    1.0000 </r>
       <r>   -3.9992    1.0000 </r>
       <r>   -3.9943    1.0000 </r>
       <r>   -3.9699    1.0000 </r>
       <r>   -3.9654    1.0000 </r>
       <r>   -3.9454    1.0000 </r>
       <r>   -3.9076    1.0000 </r>
       <r>   -3.8345    1.0000 </r>
       <r>   -3.8189    1.0000 </r>
       <r>   -3.8086    1.0000 </r>
       <r>   -3.7874    1.0000 </r>
       <r>   -3.7780    1.0000 </r>
       <r>   -3.7678    1.0000 </r>
       <r>   -3.7253    1.0000 </r>
       <r>   -3.7133    1.0000 </r>
       <r>   -3.6981    1.0000 </r>
       <r>   -3.6902    1.0000 </r>
       <r>   -3.6734    1.0000 </r>
       <r>   -3.6623    1.0000 </r>
       <r>   -3.6597    1.0000 </r>
       <r>   -3.6456    1.0000 </r>
       <r>   -3.6114    1.0000 </r>
       <r>   -3.5902    1.0000 </r>
       <r>   -3.5799    1.0000 </r>
       <r>   -3.5694    1.0000 </r>
       <r>   -3.5405    1.0000 </r>
       <r>   -3.5211    1.0000 </r>
       <r>   -3.5146    1.0000 </r>
       <r>   -3.4904    1.0000 </r>
       <r>   -3.4666    1.0000 </r>
       <r>   -3.4489    1.0000 </r>
       <r>   -3.4309    1.0000 </r>
       <r>   -3.4205    1.0000 </r>
       <r>   -3.3863    1.0000 </r>
       <r>   -3.3726    1.0000 </r>
       <r>   -3.3339    1.0000 </r>
       <r>   -3.3290    1.0000 </r>
       <r>   -3.3065    1.0000 </r>
       <r>   -3.2683    1.0000 </r>
       <r>   -3.2281    1.0000 </r>
       <r>   -3.2133    1.0000 </r>
       <r>   -3.1998    1.0000 </r>
       <r>   -3.1878    1.0000 </r>
       <r>   -3.1580    1.0000 </r>
       <r>   -3.1407    1.0000 </r>
       <r>   -3.1295    1.0000 </r>
       <r>   -3.1033    1.0000 </r>
       <r>   -3.0717    1.0000 </r>
       <r>   -3.0362    1.0000 </r>
       <r>   -2.9942    1.0000 </r>
       <r>   -2.9702    1.0000 </r>
       <r>   -2.9500    1.0000 </r>
       <r>   -2.9152    1.0000 </r>
       <r>   -2.8518    1.0000 </r>
       <r>   -2.8426    1.0000 </r>
       <r>   -2.8305    1.0000 </r>
       <r>   -2.8187    1.0000 </r>
       <r>   -2.8097    1.0000 </r>
       <r>   -2.7939    1.0000 </r>
       <r>   -2.7888    1.0000 </r>
       <r>   -2.7318    1.0000 </r>
       <r>   -2.6808    1.0000 </r>
       <r>   -2.6614    1.0000 </r>
       <r>   -2.6559    1.0000 </r>
       <r>   -2.6172    1.0000 </r>
       <r>   -2.6086    1.0000 </r>
       <r>   -2.5883    1.0000 </r>
       <r>   -2.5781    1.0000 </r>
       <r>   -2.5169    1.0000 </r>
       <r>   -2.4545    1.0000 </r>
       <r>   -2.4382    1.0000 </r>
       <r>   -2.4302    1.0000 </r>
       <r>   -2.4026    1.0000 </r>
       <r>   -2.3743    1.0000 </r>
       <r>   -2.3550    1.0000 </r>
       <r>   -2.3463    1.0000 </r>
       <r>   -2.3171    1.0000 </r>
       <r>   -2.2852    1.0000 </r>
       <r>   -2.2632    1.0000 </r>
       <r>   -2.2381    1.0000 </r>
       <r>   -2.2143    1.0000 </r>
       <r>   -2.1760    1.0000 </r>
       <r>   -2.1629    1.0000 </r>
       <r>   -2.1343    1.0000 </r>
       <r>   -2.1259    1.0000 </r>
       <r>   -2.0986    1.0000 </r>
       <r>   -2.0720    1.0000 </r>
       <r>   -2.0596    1.0000 </r>
       <r>   -2.0476    1.0000 </r>
       <r>   -2.0315    1.0000 </r>
       <r>   -2.0194    1.0000 </r>
       <r>   -2.0083    1.0000 </r>
       <r>   -1.9928    1.0000 </r>
       <r>   -1.9708    1.0000 </r>
       <r>   -1.9562    1.0000 </r>
       <r>   -1.9170    1.0000 </r>
       <r>   -1.8844    1.0000 </r>
       <r>   -1.8504    1.0000 </r>
       <r>   -1.8314    1.0000 </r>
       <r>   -1.8117    1.0000 </r>
       <r>   -1.7513    1.0000 </r>
       <r>   -1.7318    1.0000 </r>
       <r>   -1.7132    1.0000 </r>
       <r>   -1.6962    1.0000 </r>
       <r>   -1.6863    1.0000 </r>
       <r>   -1.6709    1.0000 </r>
       <r>   -1.6669    1.0000 </r>
       <r>   -1.6619    1.0000 </r>
       <r>   -1.6474    1.0000 </r>
       <r>   -1.6375    1.0000 </r>
       <r>   -1.6073    1.0000 </r>
       <r>   -1.5966    1.0000 </r>
       <r>   -1.5876    1.0000 </r>
       <r>   -1.5719    1.0000 </r>
       <r>   -1.5634    1.0000 </r>
       <r>   -1.5494    1.0000 </r>
       <r>   -1.5416    1.0000 </r>
       <r>   -1.5220    1.0000 </r>
       <r>   -1.5031    1.0000 </r>
       <r>   -1.4597    1.0000 </r>
       <r>   -1.4324    1.0000 </r>
       <r>   -1.4193    1.0000 </r>
       <r>   -1.4096    1.0000 </r>
       <r>   -1.3831    1.0000 </r>
       <r>   -1.3674    1.0000 </r>
       <r>   -1.3116    1.0000 </r>
       <r>   -1.2410    1.0000 </r>
       <r>   -1.0725    1.0000 </r>
       <r>   -0.9713    1.0000 </r>
       <r>   -0.9615    1.0000 </r>
       <r>   -0.9129    1.0000 </r>
       <r>   -0.7935    1.0000 </r>
       <r>   -0.7373    1.0000 </r>
       <r>   -0.5478    1.0000 </r>
       <r>   -0.4572    1.0000 </r>
       <r>   -0.4292    1.0000 </r>
       <r>   -0.2909    1.0000 </r>
       <r>   -0.0571    1.0000 </r>
       <r>    0.0532    1.0000 </r>
       <r>    0.4251    0.5645 </r>
       <r>    0.8349   -0.0000 </r>
       <r>    0.8775   -0.0000 </r>
       <r>    1.2843   -0.0000 </r>
       <r>    1.3166   -0.0000 </r>
       <r>    1.5791   -0.0000 </r>
       <r>    1.7431   -0.0000 </r>
       <r>    1.7946   -0.0000 </r>
       <r>    1.8854   -0.0000 </r>
       <r>    2.1376   -0.0000 </r>
       <r>    2.6874    0.0000 </r>
       <r>    2.8220    0.0000 </r>
       <r>    2.9101    0.0000 </r>
       <r>    3.0120    0.0000 </r>
       <r>    3.3733    0.0000 </r>
       <r>    3.5068    0.0000 </r>
       <r>    3.6600    0.0000 </r>
       <r>    3.9163    0.0000 </r>
       <r>    4.0401    0.0000 </r>
       <r>    4.0576    0.0000 </r>
       <r>    4.2407    0.0000 </r>
       <r>    4.4689    0.0000 </r>
       <r>    4.5610    0.0000 </r>
       <r>    4.8101    0.0000 </r>
       <r>    4.8671    0.0000 </r>
       <r>    5.0910    0.0000 </r>
       <r>    5.1668    0.0000 </r>
       <r>    5.2063    0.0000 </r>
       <r>    5.2635    0.0000 </r>
       <r>    5.5144    0.0000 </r>
       <r>    5.6294    0.0000 </r>
       <r>    5.7239    0.0000 </r>
       <r>    5.8480    0.0000 </r>
       <r>    5.8950    0.0000 </r>
       <r>    6.0204    0.0000 </r>
       <r>    6.1089    0.0000 </r>
       <r>    6.1947    0.0000 </r>
       <r>    6.6255    0.0000 </r>
       <r>    6.8081    0.0000 </r>
       <r>    6.9404    0.0000 </r>
      </set>
      <set comment="kpoint 3">
       <r>  -16.9000    1.0000 </r>
       <r>   -8.2447    1.0000 </r>
       <r>   -7.1125    1.0000 </r>
       <r>   -6.8990    1.0000 </r>
       <r>   -6.4170    1.0000 </r>
       <r>   -6.3944    1.0000 </r>
       <r>   -6.1700    1.0000 </r>
       <r>   -6.1167    1.0000 </r>
       <r>   -6.1064    1.0000 </r>
       <r>   -6.0311    1.0000 </r>
       <r>   -6.0115    1.0000 </r>
       <r>   -5.9848    1.0000 </r>
       <r>   -5.8700    1.0000 </r>
       <r>   -5.7883    1.0000 </r>
       <r>   -5.7151    1.0000 </r>
       <r>   -5.6967    1.0000 </r>
       <r>   -5.6740    1.0000 </r>
       <r>   -5.5549    1.0000 </r>
       <r>   -5.4677    1.0000 </r>
       <r>   -5.4352    1.0000 </r>
       <r>   -5.4088    1.0000 </r>
       <r>   -5.3956    1.0000 </r>
       <r>   -5.3636    1.0000 </r>
       <r>   -5.3234    1.0000 </r>
       <r>   -5.3023    1.0000 </r>
       <r>   -5.2870    1.0000 </r>
       <r>   -5.2802    1.0000 </r>
       <r>   -5.2632    1.0000 </r>
       <r>   -5.2590    1.0000 </r>
       <r>   -5.2300    1.0000 </r>
       <r>   -5.2245    1.0000 </r>
       <r>   -5.1330    1.0000 </r>
       <r>   -5.0915    1.0000 </r>
       <r>   -5.0550    1.0000 </r>
       <r>   -5.0376    1.0000 </r>
       <r>   -5.0149    1.0000 </r>
       <r>   -4.9620    1.0000 </r>
       <r>   -4.9210    1.0000 </r>
       <r>   -4.8918    1.0000 </r>
       <r>   -4.8716    1.0000 </r>
       <r>   -4.8418    1.0000 </r>
       <r>   -4.7918    1.0000 </r>
       <r>   -4.7362    1.0000 </r>
       <r>   -4.7227    1.0000 </r>
       <r>   -4.6827    1.0000 </r>
       <r>   -4.6452    1.0000 </r>
       <r>   -4.6183    1.0000 </r>
       <r>   -4.5932    1.0000 </r>
       <r>   -4.5577    1.0000 </r>
       <r>   -4.4693    1.0000 </r>
       <r>   -4.4438    1.0000 </r>
       <r>   -4.4164    1.0000 </r>
       <r>   -4.3903    1.0000 </r>
       <r>   -4.3613    1.0000 </r>
       <r>   -4.3469    1.0000 </r>
       <r>   -4.2522    1.0000 </r>
       <r>   -4.2306    1.0000 </r>
       <r>   -4.1976    1.0000 </r>
       <r>   -4.1763    1.0000 </r>
       <r>   -4.1350    1.0000 </r>
       <r>   -4.1020    1.0000 </r>
       <r>   -4.0880    1.0000 </r>
       <r>   -4.0604    1.0000 </r>
       <r>   -4.0218    1.0000 </r>
       <r>   -4.0011    1.0000 </r>
       <r>   -3.9964    1.0000 </r>
       <r>   -3.9699    1.0000 </r>
       <r>   -3.9668    1.0000 </r>
       <r>   -3.9454    1.0000 </r>
       <r>   -3.9061    1.0000 </r>
       <r>   -3.8445    1.0000 </r>
       <r>   -3.8240    1.0000 </r>
       <r>   -3.8139    1.0000 </r>
       <r>   -3.7890    1.0000 </r>
       <r>   -3.7776    1.0000 </r>
       <r>   -3.7669    1.0000 </r>
       <r>   -3.7253    1.0000 </r>
       <r>   -3.7120    1.0000 </r>
       <r>   -3.6969    1.0000 </r>
       <r>   -3.6884    1.0000 </r>
       <r>   -3.6714    1.0000 </r>
       <r>   -3.6585    1.0000 </r>
       <r>   -3.6562    1.0000 </r>
       <r>   -3.6425    1.0000 </r>
       <r>   -3.6103    1.0000 </r>
       <r>   -3.5922    1.0000 </r>
       <r>   -3.5776    1.0000 </r>
       <r>   -3.5694    1.0000 </r>
       <r>   -3.5410    1.0000 </r>
       <r>   -3.5244    1.0000 </r>
       <r>   -3.5143    1.0000 </r>
       <r>   -3.4902    1.0000 </r>
       <r>   -3.4702    1.0000 </r>
       <r>   -3.4502    1.0000 </r>
       <r>   -3.4316    1.0000 </r>
       <r>   -3.4206    1.0000 </r>
       <r>   -3.3868    1.0000 </r>
       <r>   -3.3735    1.0000 </r>
       <r>   -3.3342    1.0000 </r>
       <r>   -3.3290    1.0000 </r>
       <r>   -3.3071    1.0000 </r>
       <r>   -3.2697    1.0000 </r>
       <r>   -3.2261    1.0000 </r>
       <r>   -3.2134    1.0000 </r>
       <r>   -3.2004    1.0000 </r>
       <r>   -3.1900    1.0000 </r>
       <r>   -3.1602    1.0000 </r>
       <r>   -3.1395    1.0000 </r>
       <r>   -3.1287    1.0000 </r>
       <r>   -3.1034    1.0000 </r>
       <r>   -3.0709    1.0000 </r>
       <r>   -3.0354    1.0000 </r>
       <r>   -2.9942    1.0000 </r>
       <r>   -2.9678    1.0000 </r>
       <r>   -2.9493    1.0000 </r>
       <r>   -2.9154    1.0000 </r>
       <r>   -2.8542    1.0000 </r>
       <r>   -2.8439    1.0000 </r>
       <r>   -2.8327    1.0000 </r>
       <r>   -2.8197    1.0000 </r>
       <r>   -2.8092    1.0000 </r>
       <r>   -2.7944    1.0000 </r>
       <r>   -2.7899    1.0000 </r>
       <r>   -2.7311    1.0000 </r>
       <r>   -2.6819    1.0000 </r>
       <r>   -2.6639    1.0000 </r>
       <r>   -2.6571    1.0000 </r>
       <r>   -2.6164    1.0000 </r>
       <r>   -2.6121    1.0000 </r>
       <r>   -2.5871    1.0000 </r>
       <r>   -2.5766    1.0000 </r>
       <r>   -2.5173    1.0000 </r>
       <r>   -2.4551    1.0000 </r>
       <r>   -2.4393    1.0000 </r>
       <r>   -2.4315    1.0000 </r>
       <r>   -2.4044    1.0000 </r>
       <r>   -2.3747    1.0000 </r>
       <r>   -2.3543    1.0000 </r>
       <r>   -2.3426    1.0000 </r>
       <r>   -2.3171    1.0000 </r>
       <r>   -2.2863    1.0000 </r>
       <r>   -2.2630    1.0000 </r>
       <r>   -2.2372    1.0000 </r>
       <r>   -2.2130    1.0000 </r>
       <r>   -2.1764    1.0000 </r>
       <r>   -2.1625    1.0000 </r>
       <r>   -2.1341    1.0000 </r>
       <r>   -2.1249    1.0000 </r>
       <r>   -2.0981    1.0000 </r>
       <r>   -2.0708    1.0000 </r>
       <r>   -2.0591    1.0000 </r>
       <r>   -2.0462    1.0000 </r>
       <r>   -2.0316    1.0000 </r>
       <r>   -2.0181    1.0000 </r>
       <r>   -2.0077    1.0000 </r>
       <r>   -1.9915    1.0000 </r>
       <r>   -1.9695    1.0000 </r>
       <r>   -1.9557    1.0000 </r>
       <r>   -1.9172    1.0000 </r>
       <r>   -1.8843    1.0000 </r>
       <r>   -1.8518    1.0000 </r>
       <r>   -1.8320    1.0000 </r>
       <r>   -1.8122    1.0000 </r>
       <r>   -1.7518    1.0000 </r>
       <r>   -1.7320    1.0000 </r>
       <r>   -1.7132    1.0000 </r>
       <r>   -1.6954    1.0000 </r>
       <r>   -1.6868    1.0000 </r>
       <r>   -1.6720    1.0000 </r>
       <r>   -1.6683    1.0000 </r>
       <r>   -1.6622    1.0000 </r>
       <r>   -1.6490    1.0000 </r>
       <r>   -1.6378    1.0000 </r>
       <r>   -1.6074    1.0000 </r>
       <r>   -1.5982    1.0000 </r>
       <r>   -1.5885    1.0000 </r>
       <r>   -1.5726    1.0000 </r>
       <r>   -1.5650    1.0000 </r>
       <r>   -1.5513    1.0000 </r>
       <r>   -1.5446    1.0000 </r>
       <r>   -1.5235    1.0000 </r>
       <r>   -1.5018    1.0000 </r>
       <r>   -1.4577    1.0000 </r>
       <r>   -1.4310    1.0000 </r>
       <r>   -1.4176    1.0000 </r>
       <r>   -1.4069    1.0000 </r>
       <r>   -1.3798    1.0000 </r>
       <r>   -1.3637    1.0000 </r>
       <r>   -1.3094    1.0000 </r>
       <r>   -1.2404    1.0000 </r>
       <r>   -1.0736    1.0000 </r>
       <r>   -0.9726    1.0000 </r>
       <r>   -0.9650    1.0000 </r>
       <r>   -0.9147    1.0000 </r>
       <r>   -0.7945    1.0000 </r>
       <r>   -0.7385    1.0000 </r>
       <r>   -0.5452    1.0000 </r>
       <r>   -0.4531    1.0000 </r>
       <r>   -0.4262    1.0000 </r>
       <r>   -0.2891    1.0000 </r>
       <r>   -0.0577    1.0000 </r>
       <r>    0.0543    1.0000 </r>
       <r>    0.4243    0.5712 </r>
       <r>    0.8349   -0.0000 </r>
       <r>    0.8777   -0.0000 </r>
       <r>    1.2820   -0.0000 </r>
       <r>    1.3151   -0.0000 </r>
       <r>    1.5798   -0.0000 </r>
       <r>    1.7444   -0.0000 </r>
       <r>    1.7940   -0.0000 </r>
       <r>    1.8860   -0.0000 </r>
       <r>    2.1379   -0.0000 </r>
       <r>    2.6877    0.0000 </r>
       <r>    2.8214    0.0000 </r>
       <r>    2.9100    0.0000 </r>
       <r>    3.0132    0.0000 </r>
       <r>    3.3756    0.0000 </r>
       <r>    3.5089    0.0000 </r>
       <r>    3.6616    0.0000 </r>
       <r>    3.9098    0.0000 </r>
       <r>    4.0366    0.0000 </r>
       <r>    4.0540    0.0000 </r>
       <r>    4.2349    0.0000 </r>
       <r>    4.4731    0.0000 </r>
       <r>    4.5670    0.0000 </r>
       <r>    4.8143    0.0000 </r>
       <r>    4.8700    0.0000 </r>
       <r>    5.0888    0.0000 </r>
       <r>    5.1672    0.0000 </r>
       <r>    5.2081    0.0000 </r>
       <r>    5.2646    0.0000 </r>
       <r>    5.5172    0.0000 </r>
       <r>    5.6290    0.0000 </r>
       <r>    5.7252    0.0000 </r>
       <r>    5.8479    0.0000 </r>
       <r>    5.8988    0.0000 </r>
       <r>    6.0243    0.0000 </r>
       <r>    6.1518    0.0000 </r>
       <r>    6.4870    0.0000 </r>
       <r>    6.5131    0.0000 </r>
       <r>    6.7174    0.0000 </r>
       <r>    6.8356    0.0000 </r>
      </set>
      <set comment="kpoint 4">
       <r>  -16.8997    1.0000 </r>
       <r>   -7.8606    1.0000 </r>
       <r>   -7.1760    1.0000 </r>
       <r>   -7.1532    1.0000 </r>
       <r>   -6.7529    1.0000 </r>
       <r>   -6.1875    1.0000 </r>
       <r>   -6.1622    1.0000 </r>
       <r>   -5.9741    1.0000 </r>
       <r>   -5.9613    1.0000 </r>
       <r>   -5.8365    1.0000 </r>
       <r>   -5.8096    1.0000 </r>
       <r>   -5.7964    1.0000 </r>
       <r>   -5.7893    1.0000 </r>
       <r>   -5.7820    1.0000 </r>
       <r>   -5.7696    1.0000 </r>
       <r>   -5.6436    1.0000 </r>
       <r>   -5.5646    1.0000 </r>
       <r>   -5.5478    1.0000 </r>
       <r>   -5.5346    1.0000 </r>
       <r>   -5.4843    1.0000 </r>
       <r>   -5.4363    1.0000 </r>
       <r>   -5.3920    1.0000 </r>
       <r>   -5.3601    1.0000 </r>
       <r>   -5.3561    1.0000 </r>
       <r>   -5.3325    1.0000 </r>
       <r>   -5.3170    1.0000 </r>
       <r>   -5.2978    1.0000 </r>
       <r>   -5.2771    1.0000 </r>
       <r>   -5.2473    1.0000 </r>
       <r>   -5.2281    1.0000 </r>
       <r>   -5.2010    1.0000 </r>
       <r>   -5.1608    1.0000 </r>
       <r>   -5.1108    1.0000 </r>
       <r>   -5.1026    1.0000 </r>
       <r>   -5.0302    1.0000 </r>
       <r>   -5.0130    1.0000 </r>
       <r>   -4.9958    1.0000 </r>
       <r>   -4.9362    1.0000 </r>
       <r>   -4.8779    1.0000 </r>
       <r>   -4.7837    1.0000 </r>
       <r>   -4.7238    1.0000 </r>
       <r>   -4.7078    1.0000 </r>
       <r>   -4.6812    1.0000 </r>
       <r>   -4.6561    1.0000 </r>
       <r>   -4.6273    1.0000 </r>
       <r>   -4.6077    1.0000 </r>
       <r>   -4.5977    1.0000 </r>
       <r>   -4.5900    1.0000 </r>
       <r>   -4.5301    1.0000 </r>
       <r>   -4.5133    1.0000 </r>
       <r>   -4.4834    1.0000 </r>
       <r>   -4.4286    1.0000 </r>
       <r>   -4.4079    1.0000 </r>
       <r>   -4.3865    1.0000 </r>
       <r>   -4.3592    1.0000 </r>
       <r>   -4.3455    1.0000 </r>
       <r>   -4.3362    1.0000 </r>
       <r>   -4.2987    1.0000 </r>
       <r>   -4.2935    1.0000 </r>
       <r>   -4.2601    1.0000 </r>
       <r>   -4.2151    1.0000 </r>
       <r>   -4.1802    1.0000 </r>
       <r>   -4.1619    1.0000 </r>
       <r>   -4.1363    1.0000 </r>
       <r>   -4.1230    1.0000 </r>
       <r>   -4.1107    1.0000 </r>
       <r>   -4.1066    1.0000 </r>
       <r>   -4.0727    1.0000 </r>
       <r>   -4.0023    1.0000 </r>
       <r>   -3.9711    1.0000 </r>
       <r>   -3.9439    1.0000 </r>
       <r>   -3.9004    1.0000 </r>
       <r>   -3.8886    1.0000 </r>
       <r>   -3.8773    1.0000 </r>
       <r>   -3.8608    1.0000 </r>
       <r>   -3.8451    1.0000 </r>
       <r>   -3.8116    1.0000 </r>
       <r>   -3.7955    1.0000 </r>
       <r>   -3.7576    1.0000 </r>
       <r>   -3.7445    1.0000 </r>
       <r>   -3.7233    1.0000 </r>
       <r>   -3.6853    1.0000 </r>
       <r>   -3.6680    1.0000 </r>
       <r>   -3.6632    1.0000 </r>
       <r>   -3.6368    1.0000 </r>
       <r>   -3.6163    1.0000 </r>
       <r>   -3.5806    1.0000 </r>
       <r>   -3.5500    1.0000 </r>
       <r>   -3.5457    1.0000 </r>
       <r>   -3.5161    1.0000 </r>
       <r>   -3.5113    1.0000 </r>
       <r>   -3.5018    1.0000 </r>
       <r>   -3.4882    1.0000 </r>
       <r>   -3.4551    1.0000 </r>
       <r>   -3.4422    1.0000 </r>
       <r>   -3.4362    1.0000 </r>
       <r>   -3.4181    1.0000 </r>
       <r>   -3.4134    1.0000 </r>
       <r>   -3.3973    1.0000 </r>
       <r>   -3.3757    1.0000 </r>
       <r>   -3.3704    1.0000 </r>
       <r>   -3.3471    1.0000 </r>
       <r>   -3.3349    1.0000 </r>
       <r>   -3.3155    1.0000 </r>
       <r>   -3.2616    1.0000 </r>
       <r>   -3.2257    1.0000 </r>
       <r>   -3.2143    1.0000 </r>
       <r>   -3.2005    1.0000 </r>
       <r>   -3.1706    1.0000 </r>
       <r>   -3.1338    1.0000 </r>
       <r>   -3.1286    1.0000 </r>
       <r>   -3.1086    1.0000 </r>
       <r>   -3.0956    1.0000 </r>
       <r>   -3.0771    1.0000 </r>
       <r>   -3.0603    1.0000 </r>
       <r>   -2.9721    1.0000 </r>
       <r>   -2.9490    1.0000 </r>
       <r>   -2.8959    1.0000 </r>
       <r>   -2.8810    1.0000 </r>
       <r>   -2.8708    1.0000 </r>
       <r>   -2.8541    1.0000 </r>
       <r>   -2.8219    1.0000 </r>
       <r>   -2.8026    1.0000 </r>
       <r>   -2.7811    1.0000 </r>
       <r>   -2.7559    1.0000 </r>
       <r>   -2.7088    1.0000 </r>
       <r>   -2.6884    1.0000 </r>
       <r>   -2.6661    1.0000 </r>
       <r>   -2.6301    1.0000 </r>
       <r>   -2.6060    1.0000 </r>
       <r>   -2.5642    1.0000 </r>
       <r>   -2.5418    1.0000 </r>
       <r>   -2.5263    1.0000 </r>
       <r>   -2.5164    1.0000 </r>
       <r>   -2.4788    1.0000 </r>
       <r>   -2.4565    1.0000 </r>
       <r>   -2.4290    1.0000 </r>
       <r>   -2.4263    1.0000 </r>
       <r>   -2.3870    1.0000 </r>
       <r>   -2.3597    1.0000 </r>
       <r>   -2.3135    1.0000 </r>
       <r>   -2.3051    1.0000 </r>
       <r>   -2.2547    1.0000 </r>
       <r>   -2.2323    1.0000 </r>
       <r>   -2.2110    1.0000 </r>
[...]
       <r>    5.9986    0.0000 </r>
       <r>    6.0765    0.0000 </r>
       <r>    6.1378    0.0000 </r>
       <r>    6.6156    0.0000 </r>
       <r>    6.6998    0.0000 </r>
      </set>
     </set>
    </set>
   </array>
  </eigenvalues>
  <separator name="orbital magnetization" >
   <v name="MAGDIPOLOUT">      0.00000000      0.00000000      0.00000000</v>
  </separator>
  <dos>
   <i name="efermi">      0.43270915 </i>
   <total>
    <array>
     <dimension dim="1">gridpoints</dimension>
     <dimension dim="2">spin</dimension>
     <field>energy</field>
     <field>total</field>
     <field>integrated</field>
     <set>
      <set comment="spin 1">
       <r>   -18.0922     0.0000     0.0000 </r>
       <r>   -18.0048     0.0000     0.0000 </r>
       <r>   -17.9174     0.0000     0.0000 </r>
       <r>   -17.8300     0.0000     0.0000 </r>
       <r>   -17.7426    -0.0000    -0.0000 </r>
       <r>   -17.6552    -0.0000    -0.0000 </r>
       <r>   -17.5678    -0.0000    -0.0000 </r>
       <r>   -17.4803    -0.0000    -0.0000 </r>
       <r>   -17.3929    -0.0000    -0.0000 </r>
       <r>   -17.3055    -0.0000    -0.0000 </r>
       <r>   -17.2181    -0.0007    -0.0001 </r>
       <r>   -17.1307    -0.0593    -0.0052 </r>
       <r>   -17.0433    -0.6379    -0.0610 </r>
       <r>   -16.9558     2.9705     0.1987 </r>
       <r>   -16.8684    14.9492     1.5054 </r>
       <r>   -16.7810     6.4642     2.0705 </r>
       <r>   -16.6936    -0.6585     2.0129 </r>
       <r>   -16.6062    -0.1451     2.0003 </r>
       <r>   -16.5188    -0.0030     2.0000 </r>
       <r>   -16.4313    -0.0000     2.0000 </r>
       <r>   -16.3439    -0.0000     2.0000 </r>
       <r>   -16.2565    -0.0000     2.0000 </r>
       <r>   -16.1691     0.0000     2.0000 </r>
       <r>   -16.0817     0.0000     2.0000 </r>
       <r>   -15.9943     0.0000     2.0000 </r>
       <r>   -15.9069     0.0000     2.0000 </r>
       <r>   -15.8194     0.0000     2.0000 </r>
       <r>   -15.7320     0.0000     2.0000 </r>
       <r>   -15.6446     0.0000     2.0000 </r>
       <r>   -15.5572     0.0000     2.0000 </r>
       <r>   -15.4698     0.0000     2.0000 </r>
       <r>   -15.3824     0.0000     2.0000 </r>
       <r>   -15.2949     0.0000     2.0000 </r>
       <r>   -15.2075     0.0000     2.0000 </r>
       <r>   -15.1201     0.0000     2.0000 </r>
       <r>   -15.0327     0.0000     2.0000 </r>
       <r>   -14.9453     0.0000     2.0000 </r>
       <r>   -14.8579     0.0000     2.0000 </r>
       <r>   -14.7705     0.0000     2.0000 </r>
       <r>   -14.6830     0.0000     2.0000 </r>
       <r>   -14.5956     0.0000     2.0000 </r>
       <r>   -14.5082     0.0000     2.0000 </r>
       <r>   -14.4208     0.0000     2.0000 </r>
       <r>   -14.3334     0.0000     2.0000 </r>
       <r>   -14.2460     0.0000     2.0000 </r>
       <r>   -14.1585     0.0000     2.0000 </r>
       <r>   -14.0711     0.0000     2.0000 </r>
       <r>   -13.9837     0.0000     2.0000 </r>
       <r>   -13.8963     0.0000     2.0000 </r>
       <r>   -13.8089     0.0000     2.0000 </r>
       <r>   -13.7215     0.0000     2.0000 </r>
       <r>   -13.6341     0.0000     2.0000 </r>
       <r>   -13.5466     0.0000     2.0000 </r>
       <r>   -13.4592     0.0000     2.0000 </r>
       <r>   -13.3718     0.0000     2.0000 </r>
       <r>   -13.2844     0.0000     2.0000 </r>
       <r>   -13.1970     0.0000     2.0000 </r>
       <r>   -13.1096     0.0000     2.0000 </r>
       <r>   -13.0221     0.0000     2.0000 </r>
       <r>   -12.9347     0.0000     2.0000 </r>
       <r>   -12.8473     0.0000     2.0000 </r>
       <r>   -12.7599     0.0000     2.0000 </r>
       <r>   -12.6725     0.0000     2.0000 </r>
       <r>   -12.5851     0.0000     2.0000 </r>
       <r>   -12.4977     0.0000     2.0000 </r>
       <r>   -12.4102     0.0000     2.0000 </r>
       <r>   -12.3228     0.0000     2.0000 </r>
       <r>   -12.2354     0.0000     2.0000 </r>
       <r>   -12.1480     0.0000     2.0000 </r>
       <r>   -12.0606     0.0000     2.0000 </r>
       <r>   -11.9732     0.0000     2.0000 </r>
       <r>   -11.8857     0.0000     2.0000 </r>
       <r>   -11.7983     0.0000     2.0000 </r>
       <r>   -11.7109     0.0000     2.0000 </r>
       <r>   -11.6235     0.0000     2.0000 </r>
       <r>   -11.5361     0.0000     2.0000 </r>
       <r>   -11.4487     0.0000     2.0000 </r>
       <r>   -11.3613     0.0000     2.0000 </r>
       <r>   -11.2738     0.0000     2.0000 </r>
       <r>   -11.1864     0.0000     2.0000 </r>
       <r>   -11.0990     0.0000     2.0000 </r>
       <r>   -11.0116     0.0000     2.0000 </r>
       <r>   -10.9242     0.0000     2.0000 </r>
       <r>   -10.8368     0.0000     2.0000 </r>
       <r>   -10.7493     0.0000     2.0000 </r>
       <r>   -10.6619     0.0000     2.0000 </r>
       <r>   -10.5745     0.0000     2.0000 </r>
       <r>   -10.4871     0.0000     2.0000 </r>
       <r>   -10.3997     0.0000     2.0000 </r>
       <r>   -10.3123     0.0000     2.0000 </r>
       <r>   -10.2249     0.0000     2.0000 </r>
       <r>   -10.1374     0.0000     2.0000 </r>
       <r>   -10.0500     0.0000     2.0000 </r>
       <r>    -9.9626     0.0000     2.0000 </r>
       <r>    -9.8752     0.0000     2.0000 </r>
       <r>    -9.7878     0.0000     2.0000 </r>
       <r>    -9.7004     0.0000     2.0000 </r>
       <r>    -9.6129     0.0000     2.0000 </r>
       <r>    -9.5255     0.0000     2.0000 </r>
       <r>    -9.4381     0.0000     2.0000 </r>
       <r>    -9.3507     0.0000     2.0000 </r>
       <r>    -9.2633     0.0000     2.0000 </r>
       <r>    -9.1759     0.0000     2.0000 </r>
       <r>    -9.0885    -0.0000     2.0000 </r>
       <r>    -9.0010    -0.0000     2.0000 </r>
       <r>    -8.9136    -0.0000     2.0000 </r>
       <r>    -8.8262    -0.0000     2.0000 </r>
       <r>    -8.7388    -0.0000     2.0000 </r>
       <r>    -8.6514    -0.0000     2.0000 </r>
       <r>    -8.5640    -0.0003     2.0000 </r>
       <r>    -8.4765    -0.0279     1.9975 </r>
       <r>    -8.3891    -0.3136     1.9701 </r>
       <r>    -8.3017     1.3930     2.0919 </r>
       <r>    -8.2143     7.4322     2.7416 </r>
       <r>    -8.1269     3.3513     3.0345 </r>
       <r>    -8.0395    -0.4788     2.9927 </r>
       <r>    -7.9521    -0.1062     2.9834 </r>
       <r>    -7.8646     5.3346     3.4497 </r>
       <r>    -7.7772     6.2219     3.9936 </r>
       <r>    -7.6898     0.2909     4.0190 </r>
       <r>    -7.6024    -0.2079     4.0009 </r>
       <r>    -7.5150    -0.0101     4.0000 </r>
       <r>    -7.4276    -0.0202     3.9982 </r>
       <r>    -7.3401    -0.3960     3.9636 </r>
       <r>    -7.2527     0.1928     3.9805 </r>
       <r>    -7.1653    12.5638     5.0787 </r>
       <r>    -7.0779    18.7702     6.7195 </r>
       <r>    -6.9905     3.8011     7.0518 </r>
       <r>    -6.9031     4.2768     7.4257 </r>
       <r>    -6.8157     6.9976     8.0374 </r>
       <r>    -6.7282     7.2991     8.6754 </r>
       <r>    -6.6408     4.0070     9.0257 </r>
       <r>    -6.5534    -0.8346     8.9527 </r>
       <r>    -6.4660     2.6845     9.1874 </r>
       <r>    -6.3786    14.1142    10.4212 </r>
       <r>    -6.2912     6.4372    10.9839 </r>
       <r>    -6.2037     8.4555    11.7231 </r>
       <r>    -6.1163    28.7754    14.2385 </r>
       <r>    -6.0289    34.2626    17.2335 </r>
       <r>    -5.9415    33.5499    20.1663 </r>
       <r>    -5.8541    27.2697    22.5501 </r>
       <r>    -5.7667    53.3186    27.2110 </r>
       <r>    -5.6793    44.5668    31.1068 </r>
       <r>    -5.5918    29.1787    33.6575 </r>
       <r>    -5.5044    39.4346    37.1047 </r>
       <r>    -5.4170    50.3800    41.5086 </r>
       <r>    -5.3296    78.5715    48.3770 </r>
       <r>    -5.2422   101.5875    57.2573 </r>
       <r>    -5.1548    66.6524    63.0838 </r>
       <r>    -5.0673    51.4746    67.5834 </r>
       <r>    -4.9799    57.2586    72.5887 </r>
       <r>    -4.8925    49.2932    76.8977 </r>
       <r>    -4.8051    42.5277    80.6153 </r>
       <r>    -4.7177    43.9104    84.4537 </r>
       <r>    -4.6303    72.1977    90.7649 </r>
       <r>    -4.5429    69.2331    96.8170 </r>
       <r>    -4.4554    48.6811   101.0724 </r>
       <r>    -4.3680    73.5185   107.4991 </r>
       <r>    -4.2806    71.9991   113.7929 </r>
       <r>    -4.1932    60.4747   119.0793 </r>
       <r>    -4.1058    79.2055   126.0031 </r>
       <r>    -4.0184    73.6312   132.4396 </r>
       <r>    -3.9309    78.0362   139.2612 </r>
       <r>    -3.8435    81.2891   146.3671 </r>
       <r>    -3.7561    87.8577   154.0472 </r>
       <r>    -3.6687   108.0547   163.4929 </r>
       <r>    -3.5813   109.1058   173.0304 </r>
       <r>    -3.4939   110.3982   182.6809 </r>
       <r>    -3.4065   121.9224   193.3388 </r>
       <r>    -3.3190   101.1050   202.1769 </r>
       <r>    -3.2316    80.8603   209.2454 </r>
       <r>    -3.1442    93.8903   217.4528 </r>
       <r>    -3.0568    83.9854   224.7944 </r>
       <r>    -2.9694    55.4193   229.6389 </r>
       <r>    -2.8820    62.5067   235.1030 </r>
       <r>    -2.7945    97.1176   243.5926 </r>
       <r>    -2.7071    77.7989   250.3934 </r>
       <r>    -2.6197    72.7621   256.7539 </r>
       <r>    -2.5323    78.0265   263.5746 </r>
       <r>    -2.4449    70.4469   269.7328 </r>
       <r>    -2.3575    82.6581   276.9584 </r>
       <r>    -2.2701    81.1655   284.0535 </r>
       <r>    -2.1826    91.3645   292.0401 </r>
       <r>    -2.0952    95.9313   300.4260 </r>
       <r>    -2.0078    97.5141   308.9502 </r>
       <r>    -1.9204    81.1140   316.0409 </r>
       <r>    -1.8330    61.2452   321.3946 </r>
       <r>    -1.7456    64.6848   327.0491 </r>
       <r>    -1.6581   106.2391   336.3360 </r>
       <r>    -1.5707   139.4955   348.5301 </r>
       <r>    -1.4833   122.7478   359.2601 </r>
       <r>    -1.3959    90.3095   367.1546 </r>
       <r>    -1.3085    72.4898   373.4913 </r>
       <r>    -1.2211    38.5298   376.8594 </r>
       <r>    -1.1337    15.6689   378.2291 </r>
       <r>    -1.0462    14.7489   379.5184 </r>
       <r>    -0.9588    27.6908   381.9390 </r>
       <r>    -0.8714    29.7499   384.5396 </r>
       <r>    -0.7840    21.2105   386.3937 </r>
       <r>    -0.6966    17.8161   387.9511 </r>
       <r>    -0.6092    19.0104   389.6129 </r>
       <r>    -0.5217    18.6308   391.2415 </r>
       <r>    -0.4343    15.2717   392.5765 </r>
       <r>    -0.3469    13.8401   393.7863 </r>
       <r>    -0.2595    14.0359   395.0133 </r>
       <r>    -0.1721     9.1826   395.8160 </r>
       <r>    -0.0847     5.6263   396.3078 </r>
       <r>     0.0027     9.2174   397.1136 </r>
       <r>     0.0902    15.0488   398.4291 </r>
       <r>     0.1776     6.6833   399.0133 </r>
       <r>     0.2650     1.0789   399.1076 </r>
       <r>     0.3524    12.2245   400.1762 </r>
       <r>     0.4398    22.9817   402.1852 </r>
       <r>     0.5272    19.3732   403.8787 </r>
       <r>     0.6147     1.5329   404.0127 </r>
       <r>     0.7021     3.7641   404.3417 </r>
       <r>     0.7895    15.7661   405.7199 </r>
       <r>     0.8769    18.3487   407.3239 </r>
       <r>     0.9643    20.7326   409.1362 </r>
       <r>     1.0517    13.0607   410.2779 </r>
       <r>     1.1391     5.7769   410.7829 </r>
       <r>     1.2266    11.6860   411.8045 </r>
       <r>     1.3140    16.3762   413.2360 </r>
       <r>     1.4014    10.9332   414.1917 </r>
       <r>     1.4888     7.3128   414.8310 </r>
       <r>     1.5762     6.8430   415.4292 </r>
       <r>     1.6636     5.8980   415.9447 </r>
       <r>     1.7511     8.6347   416.6995 </r>
       <r>     1.8385    15.1182   418.0211 </r>
       <r>     1.9259    15.7522   419.3981 </r>
       <r>     2.0133     6.6621   419.9805 </r>
       <r>     2.1007    11.3083   420.9690 </r>
       <r>     2.1881    26.0026   423.2420 </r>
       <r>     2.2755     9.7105   424.0909 </r>
       <r>     2.3630     6.2451   424.6368 </r>
       <r>     2.4504    12.2099   425.7041 </r>
       <r>     2.5378     3.2791   425.9908 </r>
       <r>     2.6252     2.7894   426.2346 </r>
       <r>     2.7126    15.8588   427.6209 </r>
       <r>     2.8000    19.6601   429.3395 </r>
       <r>     2.8875    26.4261   431.6496 </r>
       <r>     2.9749    19.3736   433.3431 </r>
       <r>     3.0623    14.2955   434.5928 </r>
       <r>     3.1497     7.2006   435.2222 </r>
       <r>     3.2371     4.2848   435.5968 </r>
       <r>     3.3245     4.0265   435.9487 </r>
       <r>     3.4119    11.3924   436.9446 </r>
       <r>     3.4994    15.7892   438.3248 </r>
       <r>     3.5868    12.7835   439.4423 </r>
       <r>     3.6742    13.2174   440.5977 </r>
       <r>     3.7616     4.7588   441.0137 </r>
       <r>     3.8490    -0.1948   440.9967 </r>
       <r>     3.9364    12.4178   442.0822 </r>
       <r>     4.0239    26.6940   444.4157 </r>
       <r>     4.1113    22.5520   446.3870 </r>
       <r>     4.1987     8.3181   447.1142 </r>
       <r>     4.2861     9.2261   447.9207 </r>
       <r>     4.3735    11.7765   448.9501 </r>
       <r>     4.4609    13.3514   450.1172 </r>
       <r>     4.5483    15.0164   451.4299 </r>
       <r>     4.6358     6.9664   452.0389 </r>
       <r>     4.7232     7.4977   452.6943 </r>
       <r>     4.8106    15.0741   454.0120 </r>
       <r>     4.8980    18.7311   455.6494 </r>
       <r>     4.9854     5.0781   456.0933 </r>
       <r>     5.0728     4.1677   456.4576 </r>
       <r>     5.1603    12.6486   457.5633 </r>
       <r>     5.2477    21.3612   459.4306 </r>
       <r>     5.3351    16.3953   460.8638 </r>
       <r>     5.4225    11.4648   461.8660 </r>
       <r>     5.5099    17.7791   463.4202 </r>
       <r>     5.5973    11.5140   464.4267 </r>
       <r>     5.6847    13.3339   465.5923 </r>
       <r>     5.7722    20.8582   467.4156 </r>
       <r>     5.8596    24.2135   469.5322 </r>
       <r>     5.9470    32.6874   472.3896 </r>
       <r>     6.0344    25.1338   474.5867 </r>
       <r>     6.1218    22.7488   476.5753 </r>
       <r>     6.2092    17.0974   478.0699 </r>
       <r>     6.2967     3.5419   478.3795 </r>
       <r>     6.3841    -0.2341   478.3590 </r>
       <r>     6.4715     4.1931   478.7256 </r>
       <r>     6.5589     7.9679   479.4221 </r>
       <r>     6.6463    14.9191   480.7262 </r>
       <r>     6.7337    15.8142   482.1086 </r>
       <r>     6.8211     9.9282   482.9765 </r>
       <r>     6.9086     6.4050   483.5364 </r>
       <r>     6.9960     4.8265   483.9583 </r>
       <r>     7.0834     0.7032   484.0198 </r>
       <r>     7.1708    -0.2091   484.0015 </r>
       <r>     7.2582    -0.0172   484.0000 </r>
       <r>     7.3456    -0.0002   484.0000 </r>
       <r>     7.4331    -0.0000   484.0000 </r>
       <r>     7.5205    -0.0000   484.0000 </r>
       <r>     7.6079    -0.0000   484.0000 </r>
       <r>     7.6953     0.0000   484.0000 </r>
       <r>     7.7827     0.0000   484.0000 </r>
       <r>     7.8701     0.0000   484.0000 </r>
       <r>     7.9575     0.0000   484.0000 </r>
       <r>     8.0450     0.0000   484.0000 </r>
       <r>     8.1324     0.0000   484.0000 </r>
      </set>
     </set>
    </array>
   </total>
  </dos>
 </calculation>
 <structure name="finalpos" >
  <crystal>
   <varray name="basis" >
    <v>       8.80347943       0.00000000       0.00000000 </v>
    <v>       4.40173971       7.62403682       0.00000000 </v>
    <v>       0.00000000       0.00000000      23.18801085 </v>
   </varray>
   <i name="volume">   1556.33410245 </i>
   <varray name="rec_basis" >
    <v>       0.11359145      -0.06558205       0.00000000 </v>
    <v>       0.00000000       0.13116411       0.00000000 </v>
    <v>       0.00000000       0.00000000       0.04312573 </v>
   </varray>
  </crystal>
  <varray name="positions" >
   <v>       0.00000000       0.00000000       0.00000000 </v>
   <v>       0.33333333       0.00000000       0.00000000 </v>
   <v>       0.66666667       0.00000000       0.00000000 </v>
   <v>       0.00000000       0.33333333       0.00000000 </v>
   <v>       0.33333333       0.33333333       0.00000000 </v>
   <v>       0.66666667       0.33333333       0.00000000 </v>
   <v>       0.00000000       0.66666667       0.00000000 </v>
   <v>       0.33333333       0.66666667       0.00000000 </v>
   <v>       0.66666667       0.66666667       0.00000000 </v>
   <v>       0.11111111       0.11111111       0.10332942 </v>
   <v>       0.44444444       0.11111111       0.10332942 </v>
   <v>       0.77777778       0.11111111       0.10332942 </v>
   <v>       0.11111111       0.44444444       0.10332942 </v>
   <v>       0.44444444       0.44444444       0.10332942 </v>
   <v>       0.77777778       0.44444444       0.10332942 </v>
   <v>       0.11111111       0.77777778       0.10332942 </v>
   <v>       0.44444444       0.77777778       0.10332942 </v>
   <v>       0.77777778       0.77777778       0.10332942 </v>
   <v>       0.88949206       0.22336328       0.20701268 </v>
   <v>       0.21999012       0.22224863       0.20839285 </v>
   <v>       0.55402847       0.22131213       0.20569408 </v>
   <v>       0.89019671       0.55250704       0.20672542 </v>
   <v>       0.21956086       0.55583142       0.20566629 </v>
   <v>       0.55397406       0.55564814       0.20456533 </v>
   <v>       0.88818319       0.88981853       0.20477760 </v>
   <v>       0.22148300       0.89144939       0.20698649 </v>
   <v>       0.55051426       0.89227970       0.20669409 </v>
   <v>       0.99795807       0.00077916       0.30857849 </v>
   <v>       0.35489948       0.98660775       0.31447801 </v>
   <v>       0.67206497       0.00181800       0.30975130 </v>
   <v>       0.98287748       0.35817879       0.31475458 </v>
   <v>       0.33504562       0.33835720       0.30923812 </v>
   <v>       0.66294241       0.33554216       0.30887969 </v>
   <v>       0.99906671       0.67484777       0.30977905 </v>
   <v>       0.33263269       0.66609278       0.30884277 </v>
   <v>       0.66479044       0.66809445       0.30690204 </v>
   <v>       0.16699041       0.17003098       0.36922475 </v>
  </varray>
  <varray name="selective"  type="logical" >
   <v type="logical" >  F  F  F </v>
   <v type="logical" >  F  F  F </v>
   <v type="logical" >  F  F  F </v>
   <v type="logical" >  F  F  F </v>
   <v type="logical" >  F  F  F </v>
   <v type="logical" >  F  F  F </v>
   <v type="logical" >  F  F  F </v>
   <v type="logical" >  F  F  F </v>
   <v type="logical" >  F  F  F </v>
   <v type="logical" >  F  F  F </v>
   <v type="logical" >  F  F  F </v>
   <v type="logical" >  F  F  F </v>
   <v type="logical" >  F  F  F </v>
   <v type="logical" >  F  F  F </v>
   <v type="logical" >  F  F  F </v>
   <v type="logical" >  F  F  F </v>
   <v type="logical" >  F  F  F </v>
   <v type="logical" >  F  F  F </v>
   <v type="logical" >  T  T  T </v>
   <v type="logical" >  T  T  T </v>
   <v type="logical" >  T  T  T </v>
   <v type="logical" >  T  T  T </v>
   <v type="logical" >  T  T  T </v>
   <v type="logical" >  T  T  T </v>
   <v type="logical" >  T  T  T </v>
   <v type="logical" >  T  T  T </v>
   <v type="logical" >  T  T  T </v>
   <v type="logical" >  T  T  T </v>
   <v type="logical" >  T  T  T </v>
   <v type="logical" >  T  T  T </v>
   <v type="logical" >  T  T  T </v>
   <v type="logical" >  T  T  T </v>
   <v type="logical" >  T  T  T </v>
   <v type="logical" >  T  T  T </v>
   <v type="logical" >  T  T  T </v>
   <v type="logical" >  T  T  T </v>
   <v type="logical" >  T  T  T </v>
  </varray>
  <nose>
   <v>      -3.00000000       0.00000000       0.00010000       0.00010000 </v>
  </nose>
 </structure>
</modeling>
