unknown system                          
           1
     8.803479    0.000000    0.000000
     4.401740    7.624037    0.000000
     0.000000    0.000000   23.188011
   Au   O 
    36     1
Direct configuration=     1
   0.00000000  0.00000000  0.00000000
   0.33333333  0.00000000  0.00000000
   0.66666667  0.00000000  0.00000000
   0.00000000  0.33333333  0.00000000
   0.33333333  0.33333333  0.00000000
   0.66666667  0.33333333  0.00000000
   0.00000000  0.66666667  0.00000000
   0.33333333  0.66666667  0.00000000
   0.66666667  0.66666667  0.00000000
   0.11111111  0.11111111  0.10332942
   0.44444444  0.11111111  0.10332942
   0.77777778  0.11111111  0.10332942
   0.11111111  0.44444444  0.10332942
   0.44444444  0.44444444  0.10332942
   0.77777778  0.44444444  0.10332942
   0.11111111  0.77777778  0.10332942
   0.44444444  0.77777778  0.10332942
   0.77777778  0.77777778  0.10332942
   0.88949206  0.22336328  0.20701268
   0.21999012  0.22224863  0.20839285
   0.55402847  0.22131213  0.20569408
   0.89019671  0.55250704  0.20672542
   0.21956086  0.55583142  0.20566629
   0.55397406  0.55564814  0.20456533
   0.88818319  0.88981853  0.20477760
   0.22148300  0.89144939  0.20698649
   0.55051426  0.89227970  0.20669409
   0.99795807  0.00077916  0.30857849
   0.35489948  0.98660775  0.31447801
   0.67206497  0.00181800  0.30975130
   0.98287748  0.35817879  0.31475458
   0.33504562  0.33835720  0.30923812
   0.66294241  0.33554216  0.30887969
   0.99906671  0.67484777  0.30977905
   0.33263269  0.66609278  0.30884277
   0.66479044  0.66809445  0.30690204
   0.16699041  0.17003098  0.36922475
