  39  39   0   0
  0.3566249E+02  0.8358002E-09  0.8358002E-09  0.1991000E-08  0.5000000E-15
   1.0000000000000000E-004
  CAR 
 unknown system                          
      6.93637702    -14.12329889  301      0.63443226      1.00000000
    -14.123  0.0000E+00  0.0000E+00
    -14.053  0.0000E+00  0.0000E+00
    -13.983 -0.5606E-30 -0.3935E-31
    -13.913 -0.5483E-25 -0.3849E-26
    -13.843 -0.1985E-20 -0.1394E-21
    -13.772 -0.2657E-16 -0.1866E-17
    -13.702 -0.1280E-12 -0.8990E-14
    -13.632 -0.2291E-09 -0.1609E-10
    -13.562 -0.1501E-06 -0.1055E-07
    -13.492 -0.3541E-04 -0.2496E-05
    -13.421 -0.2937E-02 -0.2087E-03
    -13.351 -0.8091E-01 -0.5889E-02
    -13.281 -0.6047E+00 -0.4834E-01
    -13.211  0.4989E+00 -0.1332E-01
    -13.141  0.1035E+02  0.7134E+00
    -13.070  0.1508E+02  0.1772E+01
    -13.000  0.4257E+01  0.2071E+01
    -12.930 -0.7296E+00  0.2020E+01
    -12.860 -0.2628E+00  0.2001E+01
    -12.790 -0.1725E-01  0.2000E+01
    -12.719 -0.3531E-03  0.2000E+01
    -12.649 -0.2489E-05  0.2000E+01
    -12.579 -0.6258E-08  0.2000E+01
    -12.509 -0.5706E-11  0.2000E+01
    -12.439  0.0000E+00  0.2000E+01
    -12.368  0.0000E+00  0.2000E+01
    -12.298  0.0000E+00  0.2000E+01
    -12.228  0.0000E+00  0.2000E+01
    -12.158  0.0000E+00  0.2000E+01
    -12.088  0.0000E+00  0.2000E+01
    -12.017  0.0000E+00  0.2000E+01
    -11.947  0.0000E+00  0.2000E+01
    -11.877  0.0000E+00  0.2000E+01
    -11.807  0.0000E+00  0.2000E+01
    -11.737  0.0000E+00  0.2000E+01
    -11.666  0.0000E+00  0.2000E+01
    -11.596  0.0000E+00  0.2000E+01
    -11.526  0.0000E+00  0.2000E+01
    -11.456  0.0000E+00  0.2000E+01
    -11.386  0.0000E+00  0.2000E+01
    -11.315  0.0000E+00  0.2000E+01
    -11.245  0.0000E+00  0.2000E+01
    -11.175  0.0000E+00  0.2000E+01
    -11.105  0.0000E+00  0.2000E+01
    -11.035  0.0000E+00  0.2000E+01
    -10.964  0.0000E+00  0.2000E+01
    -10.894  0.0000E+00  0.2000E+01
    -10.824  0.0000E+00  0.2000E+01
    -10.754  0.0000E+00  0.2000E+01
    -10.684  0.0000E+00  0.2000E+01
    -10.613  0.0000E+00  0.2000E+01
    -10.543  0.0000E+00  0.2000E+01
    -10.473  0.0000E+00  0.2000E+01
    -10.403  0.0000E+00  0.2000E+01
    -10.333  0.0000E+00  0.2000E+01
    -10.262  0.0000E+00  0.2000E+01
    -10.192  0.0000E+00  0.2000E+01
    -10.122  0.0000E+00  0.2000E+01
    -10.052  0.0000E+00  0.2000E+01
     -9.982  0.0000E+00  0.2000E+01
     -9.911  0.0000E+00  0.2000E+01
     -9.841  0.0000E+00  0.2000E+01
     -9.771  0.0000E+00  0.2000E+01
     -9.701  0.0000E+00  0.2000E+01
     -9.631  0.0000E+00  0.2000E+01
     -9.560  0.0000E+00  0.2000E+01
     -9.490  0.0000E+00  0.2000E+01
     -9.420  0.0000E+00  0.2000E+01
     -9.350  0.0000E+00  0.2000E+01
     -9.280  0.0000E+00  0.2000E+01
     -9.209  0.0000E+00  0.2000E+01
     -9.139  0.0000E+00  0.2000E+01
     -9.069  0.0000E+00  0.2000E+01
     -8.999  0.0000E+00  0.2000E+01
     -8.929  0.0000E+00  0.2000E+01
     -8.858  0.0000E+00  0.2000E+01
     -8.788  0.0000E+00  0.2000E+01
     -8.718  0.0000E+00  0.2000E+01
     -8.648  0.0000E+00  0.2000E+01
     -8.578  0.0000E+00  0.2000E+01
     -8.507  0.0000E+00  0.2000E+01
     -8.437  0.0000E+00  0.2000E+01
     -8.367  0.0000E+00  0.2000E+01
     -8.297  0.0000E+00  0.2000E+01
     -8.227  0.0000E+00  0.2000E+01
     -8.156  0.0000E+00  0.2000E+01
     -8.086  0.0000E+00  0.2000E+01
     -8.016  0.0000E+00  0.2000E+01
     -7.946  0.0000E+00  0.2000E+01
     -7.876  0.0000E+00  0.2000E+01
     -7.805  0.0000E+00  0.2000E+01
     -7.735  0.0000E+00  0.2000E+01
     -7.665  0.0000E+00  0.2000E+01
     -7.595  0.0000E+00  0.2000E+01
     -7.525  0.0000E+00  0.2000E+01
     -7.454  0.0000E+00  0.2000E+01
     -7.384  0.0000E+00  0.2000E+01
     -7.314  0.0000E+00  0.2000E+01
     -7.244  0.0000E+00  0.2000E+01
     -7.174  0.0000E+00  0.2000E+01
     -7.103  0.0000E+00  0.2000E+01
     -7.033  0.0000E+00  0.2000E+01
     -6.963  0.0000E+00  0.2000E+01
     -6.893  0.0000E+00  0.2000E+01
     -6.823  0.0000E+00  0.2000E+01
     -6.752  0.0000E+00  0.2000E+01
     -6.682  0.0000E+00  0.2000E+01
     -6.612  0.0000E+00  0.2000E+01
     -6.542  0.0000E+00  0.2000E+01
     -6.472 -0.9329E-31  0.2000E+01
     -6.401 -0.1185E-25  0.2000E+01
     -6.331 -0.4817E-21  0.2000E+01
     -6.261 -0.7265E-17  0.2000E+01
     -6.191 -0.3979E-13  0.2000E+01
     -6.121 -0.8063E-10  0.2000E+01
     -6.050 -0.6039E-07  0.2000E+01
     -5.980 -0.1639E-04  0.2000E+01
     -5.910 -0.1580E-02  0.2000E+01
     -5.840 -0.5154E-01  0.1996E+01
     -5.770 -0.4853E+00  0.1962E+01
     -5.699 -0.1257E+00  0.1953E+01
     -5.629  0.8276E+01  0.2534E+01
     -5.559  0.1567E+02  0.3634E+01
     -5.489  0.6103E+01  0.4063E+01
     -5.419 -0.9009E+00  0.3999E+01
     -5.348 -0.7162E+00  0.3949E+01
     -5.278  0.5966E+01  0.4368E+01
     -5.208  0.1442E+02  0.5380E+01
     -5.138  0.8517E+01  0.5978E+01
     -5.068  0.7433E+01  0.6500E+01
     -4.997  0.1492E+02  0.7548E+01
     -4.927  0.1644E+02  0.8702E+01
     -4.857  0.1427E+02  0.9704E+01
     -4.787  0.8054E+01  0.1027E+02
     -4.717  0.1406E+02  0.1126E+02
     -4.646  0.1052E+02  0.1199E+02
     -4.576  0.8662E-01  0.1200E+02
     -4.506  0.1220E+00  0.1201E+02
     -4.436  0.1041E+02  0.1274E+02
     -4.366  0.1353E+02  0.1369E+02
     -4.295  0.6106E+01  0.1412E+02
     -4.225  0.1992E+02  0.1552E+02
     -4.155  0.2758E+02  0.1745E+02
     -4.085  0.8370E+01  0.1804E+02
     -4.015  0.3817E+01  0.1831E+02
     -3.944  0.1199E+02  0.1915E+02
     -3.874  0.1365E+02  0.2011E+02
     -3.804  0.5084E+02  0.2368E+02
     -3.734  0.8522E+02  0.2966E+02
     -3.664  0.6104E+02  0.3394E+02
     -3.593  0.6174E+02  0.3828E+02
     -3.523  0.7393E+02  0.4347E+02
     -3.453  0.4015E+02  0.4629E+02
     -3.383  0.4529E+02  0.4947E+02
     -3.313  0.6860E+02  0.5428E+02
     -3.242  0.8231E+02  0.6006E+02
     -3.172  0.9423E+02  0.6668E+02
     -3.102  0.6895E+02  0.7152E+02
     -3.032  0.4568E+02  0.7472E+02
     -2.962  0.6071E+02  0.7898E+02
     -2.891  0.8645E+02  0.8505E+02
     -2.821  0.7720E+02  0.9047E+02
     -2.751  0.4526E+02  0.9365E+02
     -2.681  0.5172E+02  0.9728E+02
     -2.611  0.7964E+02  0.1029E+03
     -2.540  0.8065E+02  0.1085E+03
     -2.470  0.7568E+02  0.1138E+03
     -2.400  0.6893E+02  0.1187E+03
     -2.330  0.6328E+02  0.1231E+03
     -2.260  0.6382E+02  0.1276E+03
     -2.189  0.6269E+02  0.1320E+03
     -2.119  0.6747E+02  0.1367E+03
     -2.049  0.6988E+02  0.1416E+03
     -1.979  0.6029E+02  0.1459E+03
     -1.909  0.5689E+02  0.1499E+03
     -1.838  0.6444E+02  0.1544E+03
     -1.768  0.7954E+02  0.1600E+03
     -1.698  0.1028E+03  0.1672E+03
     -1.628  0.1246E+03  0.1759E+03
     -1.558  0.1163E+03  0.1841E+03
     -1.487  0.9087E+02  0.1905E+03
     -1.417  0.7554E+02  0.1958E+03
     -1.347  0.7996E+02  0.2014E+03
     -1.277  0.7133E+02  0.2064E+03
     -1.207  0.4968E+02  0.2099E+03
     -1.136  0.7124E+02  0.2149E+03
     -1.066  0.8871E+02  0.2211E+03
     -0.996  0.7462E+02  0.2264E+03
     -0.926  0.8746E+02  0.2325E+03
     -0.856  0.1165E+03  0.2407E+03
     -0.786  0.1095E+03  0.2484E+03
     -0.715  0.8995E+02  0.2547E+03
     -0.645  0.8120E+02  0.2604E+03
     -0.575  0.7352E+02  0.2655E+03
     -0.505  0.7311E+02  0.2707E+03
     -0.435  0.8894E+02  0.2769E+03
     -0.364  0.8457E+02  0.2829E+03
     -0.294  0.7727E+02  0.2883E+03
     -0.224  0.7888E+02  0.2938E+03
     -0.154  0.7246E+02  0.2989E+03
     -0.084  0.6200E+02  0.3033E+03
     -0.013  0.6490E+02  0.3078E+03
      0.057  0.9141E+02  0.3142E+03
      0.127  0.9936E+02  0.3212E+03
      0.197  0.8267E+02  0.3270E+03
      0.267  0.8228E+02  0.3328E+03
      0.338  0.9676E+02  0.3396E+03
      0.408  0.1075E+03  0.3471E+03
      0.478  0.9655E+02  0.3539E+03
      0.548  0.7439E+02  0.3591E+03
      0.618  0.9986E+02  0.3661E+03
      0.689  0.1046E+03  0.3735E+03
      0.759  0.4332E+02  0.3765E+03
      0.829  0.1711E+02  0.3777E+03
      0.899  0.3626E+02  0.3803E+03
      0.969  0.4133E+02  0.3832E+03
      1.040  0.1359E+02  0.3841E+03
      1.110 -0.9338E+00  0.3840E+03
      1.180  0.6674E+01  0.3845E+03
      1.250  0.1396E+02  0.3855E+03
      1.320  0.1054E+02  0.3862E+03
      1.391  0.1216E+02  0.3871E+03
      1.461  0.1348E+02  0.3880E+03
      1.531  0.2464E+02  0.3898E+03
      1.601  0.2673E+02  0.3916E+03
      1.671  0.1331E+02  0.3926E+03
      1.742  0.1488E+02  0.3936E+03
      1.812  0.1274E+02  0.3945E+03
      1.882  0.1249E+02  0.3954E+03
      1.952  0.1831E+02  0.3967E+03
      2.022  0.1567E+02  0.3978E+03
      2.093  0.3551E+01  0.3980E+03
      2.163  0.5578E+01  0.3984E+03
      2.233  0.1427E+02  0.3994E+03
      2.303  0.1418E+02  0.4004E+03
      2.373  0.1503E+02  0.4015E+03
      2.444  0.9414E+01  0.4021E+03
      2.514  0.1227E+02  0.4030E+03
      2.584  0.1329E+02  0.4039E+03
      2.654  0.1127E+02  0.4047E+03
      2.724  0.1366E+02  0.4057E+03
      2.795  0.5357E+01  0.4061E+03
      2.865 -0.5821E+00  0.4060E+03
      2.935 -0.1033E+01  0.4059E+03
      3.005  0.3259E+01  0.4062E+03
      3.075  0.1384E+02  0.4071E+03
      3.146  0.1097E+02  0.4079E+03
      3.216  0.2090E+01  0.4081E+03
      3.286  0.9303E+01  0.4087E+03
      3.356  0.1600E+02  0.4098E+03
      3.426  0.1606E+02  0.4110E+03
      3.497  0.1489E+02  0.4120E+03
      3.567  0.1445E+02  0.4130E+03
      3.637  0.1166E+02  0.4138E+03
      3.707  0.3618E+01  0.4141E+03
      3.777  0.1092E+02  0.4149E+03
      3.848  0.1339E+02  0.4158E+03
      3.918  0.5637E+01  0.4162E+03
      3.988  0.1094E+02  0.4170E+03
      4.058  0.1550E+02  0.4180E+03
      4.128  0.1667E+02  0.4192E+03
      4.199  0.1018E+02  0.4199E+03
      4.269  0.1478E+01  0.4200E+03
      4.339  0.8977E+01  0.4207E+03
      4.409  0.1540E+02  0.4217E+03
      4.479  0.1461E+02  0.4228E+03
      4.550  0.1375E+02  0.4237E+03
      4.620  0.4789E+01  0.4241E+03
      4.690  0.9858E+01  0.4248E+03
      4.760  0.1402E+02  0.4258E+03
      4.830  0.5499E+01  0.4261E+03
      4.901  0.6356E+01  0.4266E+03
      4.971  0.8615E+01  0.4272E+03
      5.041  0.8229E+01  0.4278E+03
      5.111  0.1103E+02  0.4285E+03
      5.181  0.1568E+02  0.4296E+03
      5.252  0.1162E+02  0.4305E+03
      5.322  0.9088E+01  0.4311E+03
      5.392  0.8753E+01  0.4317E+03
      5.462  0.3734E+01  0.4320E+03
      5.532  0.6025E+00  0.4320E+03
      5.603  0.9713E+01  0.4327E+03
      5.673  0.1440E+02  0.4337E+03
      5.743  0.1445E+02  0.4347E+03
      5.813  0.2584E+02  0.4365E+03
      5.883  0.2418E+02  0.4382E+03
      5.954  0.1776E+02  0.4395E+03
      6.024  0.8119E+01  0.4400E+03
      6.094 -0.8469E-01  0.4400E+03
      6.164 -0.5484E+00  0.4400E+03
      6.234 -0.6422E-01  0.4400E+03
      6.305 -0.2157E-02  0.4400E+03
      6.375 -0.2448E-04  0.4400E+03
      6.445 -0.9864E-07  0.4400E+03
      6.515 -0.1442E-09  0.4400E+03
      6.585 -0.7591E-13  0.4400E+03
      6.656  0.0000E+00  0.4400E+03
      6.726  0.0000E+00  0.4400E+03
      6.796  0.0000E+00  0.4400E+03
      6.866  0.0000E+00  0.4400E+03
      6.936  0.0000E+00  0.4400E+03
