   39   39    1    1
  0.3566249E+02  0.8358002E-09  0.8358002E-09  0.1991000E-08  0.5000000E-15
   1.0000000000000000E-004
  CAR 
 unknown system                          
    368      2    220

  0.2500000E+00  0.2500000E+00  0.1262379E-14  0.5000000E+00
      1        -13.123298   1.000000
      2         -5.595005   1.000000
      3         -5.253805   1.000000
      4         -5.017735   1.000000
      5         -4.911395   1.000000
      6         -4.730964   1.000000
      7         -4.430277   1.000000
      8         -4.225947   1.000000
      9         -4.178495   1.000000
     10         -3.968301   1.000000
     11         -3.816708   1.000000
     12         -3.802719   1.000000
     13         -3.794656   1.000000
     14         -3.756854   1.000000
     15         -3.745528   1.000000
     16         -3.742293   1.000000
     17         -3.699369   1.000000
     18         -3.616273   1.000000
     19         -3.606230   1.000000
     20         -3.575838   1.000000
     21         -3.559453   1.000000
     22         -3.553456   1.000000
     23         -3.514621   1.000000
     24         -3.404072   1.000000
     25         -3.385295   1.000000
     26         -3.380664   1.000000
     27         -3.339787   1.000000
     28         -3.290175   1.000000
     29         -3.269734   1.000000
     30         -3.238038   1.000000
     31         -3.230633   1.000000
     32         -3.216871   1.000000
     33         -3.195941   1.000000
     34         -3.180461   1.000000
     35         -3.142263   1.000000
     36         -3.115020   1.000000
     37         -3.071387   1.000000
     38         -3.012942   1.000000
     39         -2.978620   1.000000
     40         -2.969161   1.000000
     41         -2.939502   1.000000
     42         -2.915535   1.000000
     43         -2.893084   1.000000
     44         -2.873432   1.000000
     45         -2.860203   1.000000
     46         -2.820009   1.000000
     47         -2.766514   1.000000
     48         -2.693445   1.000000
     49         -2.689686   1.000000
     50         -2.657166   1.000000
     51         -2.639113   1.000000
     52         -2.614821   1.000000
     53         -2.586654   1.000000
     54         -2.563267   1.000000
     55         -2.518437   1.000000
     56         -2.508507   1.000000
     57         -2.496837   1.000000
     58         -2.450440   1.000000
     59         -2.414696   1.000000
     60         -2.409283   1.000000
     61         -2.358879   1.000000
     62         -2.350524   1.000000
     63         -2.283876   1.000000
     64         -2.268515   1.000000
     65         -2.243644   1.000000
     66         -2.209286   1.000000
     67         -2.157275   1.000000
     68         -2.139459   1.000000
     69         -2.112703   1.000000
     70         -2.084549   1.000000
     71         -2.069047   1.000000
     72         -2.025486   1.000000
     73         -1.995303   1.000000
     74         -1.961775   1.000000
     75         -1.921941   1.000000
     76         -1.893233   1.000000
     77         -1.850673   1.000000
     78         -1.834073   1.000000
     79         -1.800641   1.000000
     80         -1.789027   1.000000
     81         -1.759134   1.000000
     82         -1.727559   1.000000
     83         -1.720498   1.000000
     84         -1.685786   1.000000
     85         -1.669257   1.000000
     86         -1.660436   1.000000
     87         -1.649537   1.000000
     88         -1.639608   1.000000
     89         -1.625111   1.000000
     90         -1.611974   1.000000
     91         -1.591640   1.000000
     92         -1.567847   1.000000
     93         -1.550547   1.000000
     94         -1.517619   1.000000
     95         -1.511763   1.000000
     96         -1.496853   1.000000
     97         -1.460531   1.000000
     98         -1.414143   1.000000
     99         -1.399345   1.000000
    100         -1.377892   1.000000
    101         -1.347977   1.000000
    102         -1.321825   1.000000
    103         -1.302833   1.000000
    104         -1.294021   1.000000
    105         -1.233468   1.000000
    106         -1.163431   1.000000
    107         -1.155111   1.000000
    108         -1.131611   1.000000
    109         -1.110427   1.000000
    110         -1.093522   1.000000
    111         -1.062362   1.000000
    112         -1.050678   1.000000
    113         -1.011788   1.000000
    114         -0.992643   1.000000
    115         -0.952473   1.000000
    116         -0.943860   1.000000
    117         -0.922620   1.000000
    118         -0.897599   1.000000
    119         -0.883360   1.000000
    120         -0.871792   1.000000
    121         -0.861087   1.000000
    122         -0.848575   1.000000
    123         -0.812501   1.000000
    124         -0.801738   1.000000
    125         -0.774412   1.000000
    126         -0.748064   1.000000
    127         -0.740748   1.000000
    128         -0.714722   1.000000
    129         -0.677771   1.000000
    130         -0.661980   1.000000
    131         -0.634759   1.000000
    132         -0.612571   1.000000
    133         -0.592269   1.000000
    134         -0.545366   1.000000
    135         -0.522738   1.000000
    136         -0.492993   1.000000
    137         -0.475914   1.000000
    138         -0.454398   1.000000
    139         -0.437436   1.000000
    140         -0.416886   1.000000
    141         -0.393053   1.000000
    142         -0.373175   1.000000
    143         -0.336063   1.000000
    144         -0.306753   1.000000
    145         -0.293053   1.000000
    146         -0.271327   1.000000
    147         -0.225229   1.000000
    148         -0.212720   1.000000
    149         -0.184790   1.000000
    150         -0.150290   1.000000
    151         -0.127471   1.000000
    152         -0.081517   1.000000
    153         -0.049954   1.000000
    154         -0.015062   1.000000
    155          0.020455   1.000000
    156          0.028837   1.000000
    157          0.046643   1.000000
    158          0.067439   1.000000
    159          0.076831   1.000000
    160          0.090350   1.000000
    161          0.125733   1.000000
    162          0.143323   1.000000
    163          0.167821   1.000000
    164          0.200810   1.000000
    165          0.222327   1.000000
    166          0.253714   1.000001
    167          0.281202   1.000004
    168          0.291781   1.000007
    169          0.300848   1.000013
    170          0.324011   1.000052
    171          0.359143   1.000348
    172          0.377040   1.000827
    173          0.390647   1.001522
    174          0.403182   1.002568
    175          0.415954   1.004208
    176          0.449535   1.012621
    177          0.470342   1.021187
    178          0.481372   1.026268
    179          0.498657   1.033198
    180          0.578837   0.899267
    181          0.586820   0.856703
    182          0.594324   0.811048
    183          0.600109   0.772368
    184          0.632029   0.520331
    185          0.643400   0.424445
    186          0.652429   0.350398
    187          0.673638   0.194793
    188          0.683221   0.136626
    189          0.791400  -0.024469
    190          0.892871  -0.000788
    191          0.928785  -0.000128
    192          0.961053  -0.000020
    193          1.189351  -0.000000
    194          1.357415  -0.000000
    195          1.526341  -0.000000
    196          1.552195  -0.000000
    197          1.698495  -0.000000
    198          1.893841  -0.000000
    199          1.980242  -0.000000
    200          2.183422  -0.000000
    201          2.337938  -0.000000
    202          2.519001  -0.000000
    203          2.654851   0.000000
    204          3.053009   0.000000
    205          3.313242   0.000000
    206          3.430901   0.000000
    207          3.584725   0.000000
    208          3.790781   0.000000
    209          4.011877   0.000000
    210          4.104861   0.000000
    211          4.349640   0.000000
    212          4.493226   0.000000
    213          4.714596   0.000000
    214          4.888953   0.000000
    215          5.150766   0.000000
    216          5.370204   0.000000
    217          5.611978   0.000000
    218          5.779496   0.000000
    219          5.830650   0.000000
    220          5.922994   0.000000

 -0.2500000E+00  0.2500000E+00  0.1262379E-14  0.5000000E+00
      1        -13.123299   1.000000
      2         -5.605596   1.000000
      3         -5.216414   1.000000
      4         -5.052712   1.000000
      5         -4.903392   1.000000
      6         -4.730390   1.000000
      7         -4.411793   1.000000
      8         -4.231608   1.000000
      9         -4.199819   1.000000
     10         -3.969137   1.000000
     11         -3.816318   1.000000
     12         -3.804841   1.000000
     13         -3.803442   1.000000
     14         -3.767636   1.000000
     15         -3.743942   1.000000
     16         -3.731098   1.000000
     17         -3.695601   1.000000
     18         -3.616028   1.000000
     19         -3.603244   1.000000
     20         -3.576714   1.000000
     21         -3.557404   1.000000
     22         -3.543079   1.000000
     23         -3.518892   1.000000
     24         -3.386434   1.000000
     25         -3.378319   1.000000
     26         -3.369560   1.000000
     27         -3.362724   1.000000
     28         -3.305959   1.000000
     29         -3.264266   1.000000
     30         -3.239702   1.000000
     31         -3.232253   1.000000
     32         -3.225261   1.000000
     33         -3.190330   1.000000
     34         -3.175912   1.000000
     35         -3.145562   1.000000
     36         -3.114231   1.000000
     37         -3.087994   1.000000
     38         -3.016552   1.000000
     39         -2.977431   1.000000
     40         -2.967827   1.000000
     41         -2.922016   1.000000
     42         -2.901933   1.000000
     43         -2.892428   1.000000
     44         -2.866705   1.000000
     45         -2.856766   1.000000
     46         -2.809581   1.000000
     47         -2.791561   1.000000
     48         -2.695890   1.000000
     49         -2.676157   1.000000
     50         -2.660928   1.000000
     51         -2.630626   1.000000
     52         -2.614641   1.000000
     53         -2.588511   1.000000
     54         -2.563813   1.000000
     55         -2.533122   1.000000
     56         -2.503493   1.000000
     57         -2.478056   1.000000
     58         -2.464809   1.000000
     59         -2.420166   1.000000
     60         -2.405608   1.000000
     61         -2.341247   1.000000
     62         -2.329480   1.000000
     63         -2.306379   1.000000
     64         -2.277381   1.000000
     65         -2.231843   1.000000
     66         -2.216957   1.000000
     67         -2.171731   1.000000
     68         -2.139610   1.000000
     69         -2.124693   1.000000
     70         -2.090679   1.000000
     71         -2.060031   1.000000
     72         -2.028334   1.000000
     73         -2.002525   1.000000
     74         -1.950638   1.000000
     75         -1.919003   1.000000
     76         -1.899710   1.000000
     77         -1.859342   1.000000
     78         -1.816167   1.000000
     79         -1.809937   1.000000
     80         -1.786038   1.000000
     81         -1.746348   1.000000
     82         -1.733198   1.000000
     83         -1.718696   1.000000
     84         -1.703839   1.000000
     85         -1.688492   1.000000
     86         -1.670925   1.000000
     87         -1.653392   1.000000
     88         -1.631896   1.000000
     89         -1.617257   1.000000
     90         -1.602366   1.000000
     91         -1.596160   1.000000
     92         -1.564780   1.000000
     93         -1.555465   1.000000
     94         -1.518708   1.000000
     95         -1.505782   1.000000
     96         -1.488107   1.000000
     97         -1.443651   1.000000
     98         -1.429571   1.000000
     99         -1.394035   1.000000
    100         -1.374240   1.000000
    101         -1.352843   1.000000
    102         -1.319615   1.000000
    103         -1.302816   1.000000
    104         -1.290247   1.000000
    105         -1.197402   1.000000
    106         -1.170401   1.000000
    107         -1.156390   1.000000
    108         -1.152645   1.000000
    109         -1.109841   1.000000
    110         -1.095856   1.000000
    111         -1.087408   1.000000
    112         -1.058231   1.000000
    113         -1.017336   1.000000
    114         -0.979083   1.000000
    115         -0.955725   1.000000
    116         -0.928531   1.000000
    117         -0.910691   1.000000
    118         -0.894569   1.000000
    119         -0.884077   1.000000
    120         -0.871821   1.000000
    121         -0.860979   1.000000
    122         -0.845476   1.000000
    123         -0.820782   1.000000
    124         -0.796675   1.000000
    125         -0.781997   1.000000
    126         -0.755803   1.000000
    127         -0.744373   1.000000
    128         -0.718804   1.000000
    129         -0.679171   1.000000
    130         -0.658436   1.000000
    131         -0.633395   1.000000
    132         -0.619801   1.000000
    133         -0.598618   1.000000
    134         -0.552804   1.000000
    135         -0.513631   1.000000
    136         -0.494307   1.000000
    137         -0.477845   1.000000
    138         -0.453694   1.000000
    139         -0.438976   1.000000
    140         -0.417283   1.000000
    141         -0.386252   1.000000
    142         -0.358357   1.000000
    143         -0.327827   1.000000
    144         -0.298632   1.000000
    145         -0.279411   1.000000
    146         -0.258993   1.000000
    147         -0.229151   1.000000
    148         -0.218193   1.000000
    149         -0.179837   1.000000
    150         -0.148743   1.000000
    151         -0.125987   1.000000
    152         -0.094222   1.000000
    153         -0.068610   1.000000
    154         -0.017842   1.000000
    155         -0.002750   1.000000
    156          0.031866   1.000000
    157          0.045577   1.000000
    158          0.064420   1.000000
    159          0.074906   1.000000
    160          0.102201   1.000000
    161          0.125732   1.000000
    162          0.142703   1.000000
    163          0.170586   1.000000
    164          0.199935   1.000000
    165          0.216054   1.000000
    166          0.252334   1.000000
    167          0.280036   1.000003
    168          0.288266   1.000006
    169          0.303845   1.000015
    170          0.334663   1.000095
    171          0.360357   1.000370
    172          0.378979   1.000904
    173          0.388932   1.001412
    174          0.406550   1.002936
    175          0.412633   1.003715
    176          0.449376   1.012565
    177          0.466155   1.019304
    178          0.484079   1.027494
    179          0.498194   1.033054
    180          0.576081   0.912480
    181          0.584787   0.868145
    182          0.590539   0.834736
    183          0.609907   0.700790
    184          0.633407   0.508678
    185          0.648787   0.379895
    186          0.655003   0.329930
    187          0.669496   0.222523
    188          0.687467   0.113691
    189          0.814176  -0.014530
    190          0.885051  -0.001126
    191          0.911294  -0.000321
    192          0.924471  -0.000161
    193          1.234931  -0.000000
    194          1.402290  -0.000000
    195          1.525381  -0.000000
    196          1.551165  -0.000000
    197          1.709943  -0.000000
    198          1.812458  -0.000000
    199          1.957153  -0.000000
    200          2.219484  -0.000000
    201          2.347017  -0.000000
    202          2.508777  -0.000000
    203          2.699352   0.000000
    204          3.080148   0.000000
    205          3.288226   0.000000
    206          3.427769   0.000000
    207          3.553869   0.000000
    208          3.780965   0.000000
    209          3.962666   0.000000
    210          4.131232   0.000000
    211          4.363850   0.000000
    212          4.500269   0.000000
    213          4.695046   0.000000
    214          5.004652   0.000000
    215          5.130139   0.000000
    216          5.259928   0.000000
    217          5.623777   0.000000
    218          5.753473   0.000000
    219          5.808105   0.000000
    220          5.936377   0.000000
