 vasp.6.4.3 19Mar24 (build Oct  2 2024 09:01:45) complex                         
 executed on             LinuxGNU date 2025.02.24  13:00:46
 running   48 mpi-ranks, with    1 threads/rank, on    1 nodes
 distrk:  each k-point on   48 cores,    1 groups
 distr:  one band on NCORE=  24 cores,    2 groups


--------------------------------------------------------------------------------------------------------


 INCAR:
   ENCUT = 400.000000
   SIGMA = 0.100000
   EDIFF = 1.00e-04
   EDIFFG = -3.00e-02
   ALGO = Fast
   GGA = PE
   PREC = Accurate
   IBRION = -1
   ICHARG = 2
   IDIPOL = 3
   ISMEAR = 1
   ISYM = 0
   NPAR = 2
   LCHARG = .FALSE.
   LDIPOL = .TRUE.
   LWAVE = .FALSE.
   LREAL = Auto

 POTCAR:    PAW_PBE Pd 04Jan2005                  
 POTCAR:    PAW_PBE H 15Jun2001                   
 POTCAR:    PAW_PBE S 06Sep2000                   
 POTCAR:    PAW_PBE Pd 04Jan2005                  
   SHA256 =  dd6f6f02930356371984e2b707ff5e456046761dc76b07c1eba30abd15eb3c39 Pd/POTCAR             
   COPYR  = (c) Copyright 04Jan2005 Georg Kresse                                                    
   COPYR  = This file is part of the software VASP. Any use, copying, and all other rights are regul
   COPYR  = If you do not have a valid VASP license, you may not use, copy or distribute this file. 
   VRHFIN =Pd : s1 d9                                                                               
   LEXCH  = PE                                                                                      
   EATOM  =   809.7530 eV,   59.5152 Ry                                                             
                                                                                                    
   TITEL  = PAW_PBE Pd 04Jan2005                                                                    
   LULTRA =        F    use ultrasoft PP ?                                                          
   IUNSCR =        1    unscreen: 0-lin 1-nonlin 2-no                                               
   RPACOR =    2.000    partial core radius                                                         
   POMASS =  106.420; ZVAL   =   10.000    mass and valenz                                          
   RCORE  =    2.600    outmost cutoff radius                                                       
   RWIGS  =    2.710; RWIGS  =    1.434    wigner-seitz radius (au A)                               
   ENMAX  =  250.925; ENMIN  =  188.194 eV                                                          
   ICORE  =        3    local potential                                                             
   LCOR   =        T    correct aug charges                                                         
   LPAW   =        T    paw PP                                                                      
   EAUG   =  416.230                                                                                
   DEXC   =    0.000                                                                                
   RMAX   =    2.653    core radius for proj-oper                                                   
   RAUG   =    1.300    factor for augmentation sphere                                              
   RDEP   =    2.734    radius for radial grids                                                     
   RDEPT  =    2.103    core radius for aug-charge                                                  
                                                                                                    
   Atomic configuration                                                                             
   12 entries                                                                                       
     n  l   j            E        occ.                                                              
     1  0  0.50    -24164.6631   2.0000                                                             
     2  0  0.50     -3530.9218   2.0000                                                             
     2  1  1.50     -3165.6822   6.0000                                                             
     3  0  0.50      -639.4577   2.0000                                                             
     3  1  1.50      -519.4532   6.0000                                                             
     3  2  2.50      -328.9757  10.0000                                                             
     4  0  0.50       -88.7014   2.0000                                                             
     4  1  1.50       -54.4540   6.0000                                                             
     4  2  2.50        -6.6878   9.0000                                                             
     5  0  0.50        -4.3543   1.0000                                                             
     5  1  0.50        -1.3606   0.0000                                                             
     4  3  2.50        -1.3606   0.0000                                                             
   Description                                                                                      
     l       E           TYP  RCUT    TYP  RCUT                                                     
     2     -6.6878251     23  2.400                                                                 
     2     -8.0484077     23  2.400                                                                 
     0     -4.3542939     23  2.400                                                                 
     0      4.3406793     23  2.400                                                                 
     1     -4.0817478     23  2.600                                                                 
     1     15.8380318     23  2.600                                                                 
     3     -4.0817478     23  2.400                                                                 
  local pseudopotential read in
  partial core-charges read in
  partial kinetic energy density read in
  atomic valenz-charges read in
  non local Contribution for L=           2  read in
    real space projection operators read in
  non local Contribution for L=           2  read in
    real space projection operators read in
  non local Contribution for L=           0  read in
    real space projection operators read in
  non local Contribution for L=           0  read in
    real space projection operators read in
  non local Contribution for L=           1  read in
    real space projection operators read in
  non local Contribution for L=           1  read in
    real space projection operators read in
    PAW grid and wavefunctions read in

   number of l-projection  operators is LMAX  =           6
   number of lm-projection operators is LMMAX =          18

 POTCAR:    PAW_PBE H 15Jun2001                   
   SHA256 =  030f79b5d3ab3cf0e668861823c8fb652ff669f3e15e46930bd03bfd63a607b6 H/POTCAR              
   COPYR  = (c) Copyright 15Jun2001 Georg Kresse                                                    
   COPYR  = This file is part of the software VASP. Any use, copying, and all other rights are regul
   COPYR  = If you do not have a valid VASP license, you may not use, copy or distribute this file. 
   VRHFIN =H: ultrasoft test                                                                        
   LEXCH  = PE                                                                                      
   EATOM  =    12.4884 eV,    0.9179 Ry                                                             
                                                                                                    
   TITEL  = PAW_PBE H 15Jun2001                                                                     
   LULTRA =        F    use ultrasoft PP ?                                                          
   IUNSCR =        0    unscreen: 0-lin 1-nonlin 2-no                                               
   RPACOR =    0.000    partial core radius                                                         
   POMASS =    1.000; ZVAL   =    1.000    mass and valenz                                          
   RCORE  =    1.100    outmost cutoff radius                                                       
   RWIGS  =    0.700; RWIGS  =    0.370    wigner-seitz radius (au A)                               
   ENMAX  =  250.000; ENMIN  =  200.000 eV                                                          
   RCLOC  =    0.701    cutoff for local pot                                                        
   LCOR   =        T    correct aug charges                                                         
   LPAW   =        T    paw PP                                                                      
   EAUG   =  400.000                                                                                
   RMAX   =    1.123    core radius for proj-oper                                                   
   RAUG   =    1.200    factor for augmentation sphere                                              
   RDEP   =    1.112    radius for radial grids                                                     
   RDEPT  =    0.926    core radius for aug-charge                                                  
                                                                                                    
   Atomic configuration                                                                             
    2 entries                                                                                       
     n  l   j            E        occ.                                                              
     1  0  0.50        -6.4927   1.0000                                                             
     2  1  0.50        -3.4015   0.0000                                                             
   Description                                                                                      
     l       E           TYP  RCUT    TYP  RCUT                                                     
     0     -6.4927494     23  1.100                                                                 
     0      6.8029130     23  1.100                                                                 
     1     -4.0817478     23  1.100                                                                 
  local pseudopotential read in
  atomic valenz-charges read in
  non local Contribution for L=           0  read in
    real space projection operators read in
  non local Contribution for L=           0  read in
    real space projection operators read in
  non local Contribution for L=           1  read in
    real space projection operators read in
    PAW grid and wavefunctions read in

   number of l-projection  operators is LMAX  =           3
   number of lm-projection operators is LMMAX =           5

 POTCAR:    PAW_PBE S 06Sep2000                   
   SHA256 =  0fc7481fb0695f01bdc6462160264c5c84044ae9ec85a907d398b887a2bc3132 S/POTCAR              
   COPYR  = (c) Copyright 06Sep2000 Georg Kresse                                                    
   COPYR  = This file is part of the software VASP. Any use, copying, and all other rights are regul
   COPYR  = If you do not have a valid VASP license, you may not use, copy or distribute this file. 
   VRHFIN =S : s2p4                                                                                 
   LEXCH  = PE                                                                                      
   EATOM  =   276.8230 eV,   20.3459 Ry                                                             
                                                                                                    
   TITEL  = PAW_PBE S 06Sep2000                                                                     
   LULTRA =        F    use ultrasoft PP ?                                                          
   IUNSCR =        1    unscreen: 0-lin 1-nonlin 2-no                                               
   RPACOR =    1.500    partial core radius                                                         
   POMASS =   32.066; ZVAL   =    6.000    mass and valenz                                          
   RCORE  =    1.900    outmost cutoff radius                                                       
   RWIGS  =    2.200; RWIGS  =    1.164    wigner-seitz radius (au A)                               
   ENMAX  =  258.689; ENMIN  =  194.016 eV                                                          
   ICORE  =        2    local potential                                                             
   LCOR   =        T    correct aug charges                                                         
   LPAW   =        T    paw PP                                                                      
   EAUG   =  335.092                                                                                
   DEXC   =    0.000                                                                                
   RMAX   =    1.942    core radius for proj-oper                                                   
   RAUG   =    1.300    factor for augmentation sphere                                              
   RDEP   =    1.954    radius for radial grids                                                     
   RDEPT  =    1.744    core radius for aug-charge                                                  
                                                                                                    
   Atomic configuration                                                                             
    6 entries                                                                                       
     n  l   j            E        occ.                                                              
     1  0  0.50     -2405.8406   2.0000                                                             
     2  0  0.50      -211.7007   2.0000                                                             
     2  1  1.50      -156.4958   6.0000                                                             
     3  0  0.50       -17.2562   2.0000                                                             
     3  1  0.50        -7.0085   4.0000                                                             
     3  2  1.50        -6.8029   0.0000                                                             
   Description                                                                                      
     l       E           TYP  RCUT    TYP  RCUT                                                     
     0    -17.2561641     23  1.900                                                                 
     0    -15.8743224     23  1.900                                                                 
     1     -7.0085400     23  1.900                                                                 
     1     -2.7779785     23  1.900                                                                 
     2     -6.8029130     23  1.900                                                                 
  local pseudopotential read in
  partial core-charges read in
  partial kinetic energy density read in
  atomic valenz-charges read in
  non local Contribution for L=           0  read in
    real space projection operators read in
  non local Contribution for L=           0  read in
    real space projection operators read in
  non local Contribution for L=           1  read in
    real space projection operators read in
  non local Contribution for L=           1  read in
    real space projection operators read in
    PAW grid and wavefunctions read in

   number of l-projection  operators is LMAX  =           4
   number of lm-projection operators is LMMAX =           8

 Optimization of the real space projectors (new method)

 maximal supplied QI-value         = 14.36
 optimisation between [QCUT,QGAM] = [ 10.20, 20.39] = [ 29.12,116.47] Ry 
 Optimized for a Real-space Cutoff    1.55 Angstroem

   l    n(q)    QCUT    max X(q) W(low)/X(q) W(high)/X(q)  e(spline) 
   2      9    10.197    59.108    0.12E-03    0.40E-04    0.11E-06
   2      9    10.197    58.101    0.12E-03    0.39E-04    0.12E-06
   0      9    10.197   102.235    0.41E-04    0.86E-05    0.83E-07
   0      9    10.197    58.388    0.37E-04    0.79E-05    0.78E-07
   1      9    10.197    22.191    0.25E-03    0.13E-03    0.84E-07
   1      9    10.197    15.590    0.21E-03    0.11E-03    0.74E-07
 Optimization of the real space projectors (new method)

 maximal supplied QI-value         = 34.20
 optimisation between [QCUT,QGAM] = [  9.92, 20.18] = [ 27.55,114.04] Ry 
 Optimized for a Real-space Cutoff    1.34 Angstroem

   l    n(q)    QCUT    max X(q) W(low)/X(q) W(high)/X(q)  e(spline) 
   0      8     9.919    19.460    0.16E-03    0.20E-03    0.36E-06
   0      8     9.919    12.209    0.16E-03    0.20E-03    0.35E-06
   1      8     9.919     4.655    0.19E-03    0.46E-03    0.40E-06
 Optimization of the real space projectors (new method)

 maximal supplied QI-value         = 19.84
 optimisation between [QCUT,QGAM] = [ 10.12, 20.44] = [ 28.68,116.96] Ry 
 Optimized for a Real-space Cutoff    1.42 Angstroem

   l    n(q)    QCUT    max X(q) W(low)/X(q) W(high)/X(q)  e(spline) 
   0      9    10.119   187.594    0.52E-04    0.93E-04    0.64E-07
   0      9    10.119   164.243    0.51E-04    0.92E-04    0.63E-07
   1      8    10.119    67.533    0.16E-03    0.17E-03    0.23E-06
   1      8    10.119    50.729    0.16E-03    0.16E-03    0.23E-06
  PAW_PBE Pd 04Jan2005                  :
 energy of atom  1       EATOM= -809.7530
 kinetic energy error for atom=    0.0091 (will be added to EATOM!!)
  PAW_PBE H 15Jun2001                   :
 energy of atom  2       EATOM=  -12.4884
 kinetic energy error for atom=    0.0098 (will be added to EATOM!!)
  PAW_PBE S 06Sep2000                   :
 energy of atom  3       EATOM= -276.8230
 kinetic energy error for atom=    0.0046 (will be added to EATOM!!)


 POSCAR: Pd H  S
  positions in cartesian coordinates
  No initial velocities read in


 exchange-correlation table for PE
   RHO(1)=    0.500       N(1)  =     2000
   RHO(2)=  100.500       N(2)  =     4000



--------------------------------------------------------------------------------------------------------


 ion  position               nearest neighbor table
   1  0.167  0.167  0.000-   3 2.79   7 2.79   4 2.79   2 2.79  10 2.79  11 2.79  13 2.79  14 2.79

   2  0.500  0.167  0.000-   8 2.79   3 2.79   5 2.79   1 2.79  11 2.79  12 2.79  14 2.79  15 2.79

   3  0.833  0.167  0.000-   1 2.79   9 2.79   6 2.79   2 2.79  10 2.79  12 2.79  13 2.79  15 2.79

   4  0.167  0.500  0.000-   6 2.79   5 2.79   1 2.79   7 2.79  13 2.79  16 2.79  14 2.79  17 2.79

   5  0.500  0.500  0.000-   2 2.79   4 2.79   6 2.79   8 2.79  14 2.79  15 2.79  17 2.79  18 2.79

   6  0.833  0.500  0.000-   4 2.79   3 2.79   5 2.79   9 2.79  13 2.79  16 2.79  15 2.79  18 2.79

   7  0.167  0.833  0.000-   1 2.79   9 2.79   8 2.79   4 2.79  10 2.79  11 2.79  16 2.79  17 2.79

   8  0.500  0.833  0.000-   2 2.79   5 2.79   7 2.79   9 2.79  11 2.79  12 2.79  17 2.79  18 2.79

   9  0.833  0.833  0.000-   3 2.79   7 2.79   6 2.79   8 2.79  10 2.79  12 2.79  16 2.79  18 2.79

  10  0.000  0.000  0.099-  11 2.79  12 2.79  13 2.79  16 2.79   1 2.79   3 2.79   7 2.79   9 2.79
                            19 2.80  21 2.81  27 2.82  25 2.83
  11  0.333  0.000  0.099-  12 2.79  10 2.79  14 2.79  17 2.79   2 2.79   8 2.79   7 2.79   1 2.79
                            25 2.79  20 2.80  19 2.81  26 2.85
  12  0.667  0.000  0.099-  11 2.79  10 2.79  15 2.79  18 2.79   2 2.79   8 2.79   3 2.79   9 2.79
                            21 2.80  20 2.81  27 2.84  26 2.85
  13  0.000  0.333  0.099-  24 2.78  16 2.79  15 2.79  10 2.79  14 2.79   6 2.79   4 2.79   3 2.79
                             1 2.79  19 2.80  21 2.81  22 2.82
  14  0.333  0.333  0.099-  22 2.76  17 2.79  15 2.79  13 2.79  11 2.79   5 2.79   2 2.79   4 2.79
                             1 2.79  20 2.79  19 2.80  23 2.84
  15  0.667  0.333  0.099-  14 2.79  18 2.79  12 2.79  13 2.79   5 2.79   2 2.79   6 2.79   3 2.79
                            20 2.81  21 2.81  24 2.81  23 2.82
  16  0.000  0.667  0.099-  24 2.78  13 2.79  17 2.79  18 2.79  10 2.79   6 2.79   4 2.79   9 2.79
                             7 2.79  27 2.79  22 2.82  25 2.82
  17  0.333  0.667  0.099-  22 2.76  25 2.78  14 2.79  18 2.79  16 2.79  11 2.79   5 2.79   4 2.79
                             8 2.79   7 2.79  23 2.82  26 2.83
  18  0.667  0.667  0.099-  15 2.79  17 2.79  16 2.79  12 2.79   5 2.79   6 2.79   8 2.79   9 2.79
                            23 2.80  27 2.81  24 2.82  26 2.82
  19  0.166  0.167  0.199-  20 2.77  29 2.78  31 2.78  22 2.79  21 2.79  25 2.80  13 2.80  10 2.80
                            14 2.80  11 2.81  28 2.81  32 2.89
  20  0.498  0.168  0.199-  19 2.77  29 2.79  14 2.79  21 2.80  23 2.80  11 2.80  30 2.80  15 2.81
                            33 2.81  12 2.81  26 2.82  32 2.83
  21  0.833  0.166  0.199-  33 2.76  28 2.78  24 2.79  19 2.79  30 2.79  20 2.80  12 2.80  10 2.81
                            15 2.81  27 2.81  13 2.81  31 2.82
  22  0.174  0.500  0.198-  23 2.74  14 2.76  17 2.76  25 2.78  19 2.79  34 2.80  24 2.81  13 2.82
                            16 2.82  31 2.86  32 2.90  35 3.06
  23  0.502  0.503  0.200-  26 2.74  22 2.74  20 2.80  18 2.80  24 2.80  33 2.81  17 2.82  15 2.82
                            36 2.82  14 2.84  32 2.86  35 2.93
  24  0.837  0.499  0.199-  27 2.76  13 2.78  16 2.78  21 2.79  23 2.80  33 2.81  15 2.81  22 2.81
                            36 2.81  18 2.82  31 2.84  34 2.86
  25  0.172  0.832  0.199-  26 2.75  34 2.77  29 2.78  22 2.78  17 2.78  11 2.79  19 2.80  28 2.80
                            27 2.81  16 2.82  10 2.83  35 3.02
  26  0.500  0.830  0.202-  23 2.74  25 2.75  30 2.75  29 2.79  27 2.80  20 2.82  18 2.82  17 2.83
                            36 2.85  12 2.85  11 2.85  35 2.87
  27  0.835  0.830  0.200-  28 2.74  24 2.76  16 2.79  30 2.80  26 2.80  36 2.81  18 2.81  21 2.81
                            25 2.81  10 2.82  12 2.84  34 2.84
  28  0.997  0.996  0.297-  27 2.74  34 2.76  30 2.77  21 2.78  31 2.78  29 2.80  25 2.80  19 2.81

  29  0.332  0.002  0.299-  32 2.74  19 2.78  25 2.78  20 2.79  30 2.79  26 2.79  35 2.79  28 2.80

  30  0.665  0.999  0.298-  26 2.75  28 2.77  33 2.78  21 2.79  29 2.79  27 2.80  20 2.80  36 2.82

  31  0.005  0.329  0.300-  39 2.33  19 2.78  28 2.78  33 2.79  32 2.80  21 2.82  34 2.82  24 2.84
                            22 2.86
  32  0.339  0.330  0.304-  37 1.79  39 2.30  29 2.74  33 2.77  31 2.80  20 2.83  35 2.85  23 2.86
                            19 2.89  22 2.90
  33  0.671  0.331  0.299-  37 1.67  21 2.76  36 2.77  32 2.77  30 2.78  31 2.79  20 2.81  24 2.81
                            23 2.81
  34  0.013  0.667  0.300-  39 2.30  28 2.76  25 2.77  22 2.80  35 2.82  36 2.82  31 2.82  27 2.84
                            24 2.86
  35  0.349  0.670  0.312-  38 1.80  39 2.31  36 2.73  29 2.79  34 2.82  32 2.85  26 2.87  23 2.93
                            25 3.02  22 3.06
  36  0.675  0.662  0.302-  38 1.70  35 2.73  33 2.77  27 2.81  24 2.81  30 2.82  34 2.82  23 2.82
                            26 2.85
  37  0.518  0.254  0.342-  33 1.67  32 1.79
  38  0.528  0.616  0.357-  36 1.70  35 1.80
  39  0.170  0.497  0.363-  34 2.30  32 2.30  35 2.31  31 2.33


IMPORTANT INFORMATION: All symmetrisations will be switched off!
NOSYMM: (Re-)initialisation of all symmetry stuff for point group C_1.


----------------------------------------------------------------------------------------

                                     Primitive cell                                     

  volume of cell :    1390.8369

  direct lattice vectors                    reciprocal lattice vectors
     8.358002154  0.000000000  0.000000000     0.119645817  0.000000000  0.000000000
     0.000000000  8.358002154  0.000000000     0.000000000  0.119645817  0.000000000
     0.000000000  0.000000000 19.910000000     0.000000000  0.000000000  0.050226017

  length of vectors
     8.358002154  8.358002154 19.910000000     0.119645817  0.119645817  0.050226017

  position of ions in fractional coordinates (direct lattice)
     0.166666667  0.166666667  0.000000000
     0.500000000  0.166666667  0.000000000
     0.833333333  0.166666667  0.000000000
     0.166666667  0.500000000  0.000000000
     0.500000000  0.500000000  0.000000000
     0.833333333  0.500000000  0.000000000
     0.166666667  0.833333333  0.000000000
     0.500000000  0.833333333  0.000000000
     0.833333333  0.833333333  0.000000000
     0.000000000  0.000000000  0.098945254
     0.333333333  0.000000000  0.098945254
     0.666666667  0.000000000  0.098945254
     0.000000000  0.333333333  0.098945254
     0.333333333  0.333333333  0.098945254
     0.666666667  0.333333333  0.098945254
     0.000000000  0.666666667  0.098945254
     0.333333333  0.666666667  0.098945254
     0.666666667  0.666666667  0.098945254
     0.166437901  0.166733903  0.199187358
     0.498164541  0.167799383  0.199031445
     0.832835508  0.165939238  0.199327213
     0.173805880  0.499900194  0.198213714
     0.501819135  0.502683675  0.200293962
     0.837280120  0.499313610  0.198623655
     0.171748926  0.832303219  0.199237212
     0.500451155  0.830323453  0.201605699
     0.835104870  0.829880636  0.199882312
     0.996820738  0.996015553  0.297485460
     0.331617819  0.002279809  0.298615569
     0.665458868  0.998675452  0.298059053
     0.004732858  0.329044207  0.300309257
     0.339406197  0.330136741  0.304267444
     0.670783610  0.330901482  0.298636348
     0.013251257  0.666798225  0.300040181
     0.349367539  0.670068680  0.312409509
     0.675468425  0.662139726  0.301930760
     0.518437943  0.253734613  0.341860796
     0.527607717  0.615569189  0.357223550
     0.170233244  0.497062180  0.362764123

  ion indices of the primitive-cell ions
   primitive index   ion index
                 1           1
                 2           2
                 3           3
                 4           4
                 5           5
                 6           6
                 7           7
                 8           8
                 9           9
                10          10
                11          11
                12          12
                13          13
                14          14
                15          15
                16          16
                17          17
                18          18
                19          19
                20          20
                21          21
                22          22
                23          23
                24          24
                25          25
                26          26
                27          27
                28          28
                29          29
                30          30
                31          31
                32          32
                33          33
                34          34
                35          35
                36          36
                37          37
                38          38
                39          39

----------------------------------------------------------------------------------------



 KPOINTS: KPOINTS created by Atomic Simulation Env

Automatic generation of k-mesh.
 Grid dimensions read from file:
 generate k-points for:    2    2    1

 Generating k-lattice:

  Cartesian coordinates                     Fractional coordinates (reciprocal lattice)
     0.059822909  0.000000000  0.000000000     0.500000000  0.000000000  0.000000000
     0.000000000  0.059822909  0.000000000     0.000000000  0.500000000  0.000000000
     0.000000000  0.000000000  0.050226017     0.000000000  0.000000000  1.000000000

  Length of vectors
     0.059822909  0.059822909  0.050226017

  Shift w.r.t. Gamma in fractional coordinates (k-lattice)
     0.500000000  0.500000000  0.000000000

 
 Subroutine IBZKPT returns following result:
 ===========================================
 
 Found      2 irreducible k-points:
 
 Following reciprocal coordinates:
            Coordinates               Weight
  0.250000  0.250000  0.000000      2.000000
 -0.250000  0.250000  0.000000      2.000000
 
 Following cartesian coordinates:
            Coordinates               Weight
  0.029911  0.029911  0.000000      2.000000
 -0.029911  0.029911  0.000000      2.000000
 


--------------------------------------------------------------------------------------------------------




 Dimension of arrays:
   k-points           NKPTS =      2   k-points in BZ     NKDIM =      2   number of bands    NBANDS=    220
   number of dos      NEDOS =    301   number of ions     NIONS =     39
   non local maximal  LDIM  =      6   non local SUM 2l+1 LMDIM =     18
   total plane-waves  NPLWV = 439040
   max r-space proj   IRMAX =   5010   max aug-charges    IRDMAX=  15510
   dimension x,y,z NGX =    56 NGY =   56 NGZ =  140
   dimension x,y,z NGXF=   112 NGYF=  112 NGZF=  280
   support grid    NGXF=   112 NGYF=  112 NGZF=  280
   ions per type =              36   2   1
   NGX,Y,Z   is equivalent  to a cutoff of  11.14, 11.14, 11.69 a.u.
   NGXF,Y,Z  is equivalent  to a cutoff of  22.28, 22.28, 23.38 a.u.

 SYSTEM =  unknown system                          
 POSCAR =  Pd H  S                                 

 Startparameter for this run:
   NWRITE =      2    write-flag & timer
   PREC   = accura    normal or accurate (medium, high low for compatibility)
   ISTART =      0    job   : 0-new  1-cont  2-samecut
   ICHARG =      2    charge: 1-file 2-atom 10-const
   ISPIN  =      1    spin polarized calculation?
   LNONCOLLINEAR =      F non collinear calculations
   LSORBIT =      F    spin-orbit coupling
   INIWAV =      1    electr: 0-lowe 1-rand  2-diag
   LASPH  =      F    aspherical Exc in radial PAW
 Electronic Relaxation 1
   ENCUT  =  400.0 eV  29.40 Ry    5.42 a.u.  13.63 13.63 32.47*2*pi/ulx,y,z
   ENINI  =  400.0     initial cutoff
   ENAUG  =  416.2 eV  augmentation charge cutoff
   NELM   =     60;   NELMIN=  2; NELMDL=  0     # of ELM steps 
   EDIFF  = 0.1E-03   stopping-criterion for ELM
   LREAL  =      T    real-space projection
   NLSPLINE    = F    spline interpolate recip. space projectors
   LCOMPAT=      F    compatible to vasp.4.4
   GGA_COMPAT  = T    GGA compatible to vasp.4.4-vasp.4.6
   LMAXPAW     = -100 max onsite density
   LMAXMIX     =    2 max onsite mixed and CHGCAR
   VOSKOWN=      0    Vosko Wilk Nusair interpolation
   ROPT   =   -0.00025  -0.00025  -0.00025
 Ionic relaxation
   EDIFFG = -.3E-01   stopping-criterion for IOM
   NSW    =      0    number of steps for IOM
   NBLOCK =      1;   KBLOCK =      1    inner block; outer block 
   IBRION =     -1    ionic relax: 0-MD 1-quasi-New 2-CG
   NFREE  =      0    steps in history (QN), initial steepest desc. (CG)
   ISIF   =      2    stress and relaxation
   IWAVPR =     10    prediction:  0-non 1-charg 2-wave 3-comb
   ISYM   =      0    0-nonsym 1-usesym 2-fastsym
   LCORR  =      T    Harris-Foulkes like correction to forces

   POTIM  = 0.5000    time-step for ionic-motion
   TEIN   =    0.0    initial temperature
   TEBEG  =    0.0;   TEEND  =   0.0 temperature during run
   SMASS  =  -3.00    Nose mass-parameter (am)
   estimated Nose-frequenzy (Omega)   =  0.10E-29 period in steps = 0.13E+47 mass=  -0.160E-26a.u.
   SCALEE = 1.0000    scale energy and forces
   NPACO  =    256;   APACO  = 10.0  distance and # of slots for P.C.
   PSTRESS=    0.0 pullay stress

  Mass of Ions in am
   POMASS = 106.42  1.00 32.07
  Ionic Valenz
   ZVAL   =  10.00  1.00  6.00
  Atomic Wigner-Seitz radii
   RWIGS  =  -1.00 -1.00 -1.00
  virtual crystal weights 
   VCA    =   1.00  1.00  1.00
   NELECT =     368.0000    total number of electrons
   NUPDOWN=      -1.0000    fix difference up-down

 DOS related values:
   EMIN   =  10.00;   EMAX   =-10.00  energy-range for DOS
   EFERMI =   0.00;   METHOD = LEGACY      
   ISMEAR =     1;   SIGMA  =   0.10  broadening in eV -4-tet -1-fermi 0-gaus

 Electronic relaxation 2 (details)
   IALGO  =     68    algorithm
   LDIAG  =      T    sub-space diagonalisation (order eigenvalues)
   LSUBROT=      F    optimize rotation matrix (better conditioning)
   TURBO    =      0    0=normal 1=particle mesh
   IRESTART =      0    0=no restart 2=restart with 2 vectors
   NREBOOT  =      0    no. of reboots
   NMIN     =      0    reboot dimension
   EREF     =   0.00    reference energy to select bands
   IMIX   =      4    mixing-type and parameters
     AMIX     =   0.40;   BMIX     =  1.00
     AMIX_MAG =   1.60;   BMIX_MAG =  1.00
     AMIN     =   0.10
     WC   =   100.;   INIMIX=   1;  MIXPRE=   1;  MAXMIX= -45

 Intra band minimization:
   WEIMIN = 0.0000     energy-eigenvalue tresh-hold
   EBREAK =  0.11E-06  absolut break condition
   DEPER  =   0.30     relativ break condition  

   TIME   =   0.40     timestep for ELM

  volume/ion in A,a.u.               =      35.66       240.66
  Fermi-wavevector in a.u.,A,eV,Ry     =   1.050990  1.986084 15.028731  1.104581
  Thomas-Fermi vector in A             =   2.186016

 Write flags
   LWAVE        =      F    write WAVECAR
   LDOWNSAMPLE  =      F    k-point downsampling of WAVECAR
   LCHARG       =      F    write CHGCAR
   LVTOT        =      F    write LOCPOT, total local potential
   LVHAR        =      F    write LOCPOT, Hartree potential only
   WRT_POTENTIAL= false  ! write potential to hdf5 file
   LELF         =      F    write electronic localiz. function (ELF)
   LORBIT       =      0    0 simple, 1 ext, 2 COOP (PROOUT), +10 PAW based schemes


 Dipole corrections
   LMONO      =      F    monopole corrections only (constant potential shift)
   LDIPOL     =      T    correct potential (dipole corrections)
   IDIPOL     =      3    1-x, 2-y, 3-z, 4-all directions 
   EPSILON    =  1.0000000 bulk dielectric constant
   LVACPOTAV  =      F  vacuum potentials using an averaging scheme for the charge density
   VACPOTFLAT =  0.1000000 required flatness to determine vacuum potential
 Exchange correlation treatment:
   GGA     = PE    functional components
   XC_C    = 1    coefficients multiplying the functional components
   LIBXC   =     F    Libxc                    
   VOSKOWN =     0    Vosko Wilk Nusair interpolation
   LHFCALC =     F    Hartree Fock is set to
   LHFONE  =     F    Hartree Fock one center treatment
   AEXX    =    0.0000 exact exchange contribution

 Parameters of functionals:
   PE:
     No parameter

 Van der Waals corrections
   IVDW    =     0    specifies the selected vdW correction

 Linear response parameters
   LEPSILON=     F    determine dielectric tensor
   LRPA    =     F    only Hartree local field effects (RPA)
   LNABLA  =     F    use nabla operator in PAW spheres
   LVEL    =     F    velocity operator in full k-point grid
   CSHIFT  =0.1000    complex shift for real part using Kramers Kronig
   OMEGAMAX=  -1.0    maximum frequency
   DEG_THRESHOLD= 0.2000000E-02 threshold for treating states as degnerate
   RTIME   =   -0.100 relaxation time in fs
  (WPLASMAI=    0.000 imaginary part of plasma frequency in eV, 0.658/RTIME)
   DFIELD  = 0.0000000 0.0000000 0.0000000 field for delta impulse in time

  Optional k-point grid parameters
   LKPOINTS_OPT  =     F    use optional k-point grid
   KPOINTS_OPT_MODE=     1    mode for optional k-point grid

 Orbital magnetization related:
   ORBITALMAG=     F  switch on orbital magnetization
   LCHIMAG   =     F  perturbation theory with respect to B field
   DQ        =  0.001000  dq finite difference perturbation B field
   LLRAUG    =     F  two centre corrections for induced B field
   LBONE     =     F  B-component reconstruction in AE one-centre
   LVGVCALC  =     T  calculate vGv susceptibility
   LVGVAPPL  =     F  apply vGv susceptibility instead of pGv for G=0

 Random number generation:
   RANDOM_GENERATOR = DEFAULT
   PCG_SEED         = not used


--------------------------------------------------------------------------------------------------------


 Static calculation
 charge density and potential will be updated during run
 non-spin polarized calculation
 RMM-DIIS sequential band-by-band and
  variant of blocked Davidson during initial phase
 perform sub-space diagonalisation
    before iterative eigenvector-optimisation
 modified Broyden-mixing scheme, WC =      100.0
 initial mixing is a Kerker type mixing with AMIX =  0.4000 and BMIX =      1.0000
 Hartree-type preconditioning will be used
 using additional bands           36
 real space projection scheme for non local part
 use partial core corrections
 calculate Harris-corrections to forces   (improved forces if not selfconsistent)
 use gradient corrections 
 use of overlap-Matrix (Vanderbilt PP)
 Methfessel and Paxton  Order N= 1 SIGMA  =   0.10


--------------------------------------------------------------------------------------------------------


  energy-cutoff  :      400.00
  volume of cell :     1390.84
      direct lattice vectors                 reciprocal lattice vectors
     8.358002154  0.000000000  0.000000000     0.119645817  0.000000000  0.000000000
     0.000000000  8.358002154  0.000000000     0.000000000  0.119645817  0.000000000
     0.000000000  0.000000000 19.910000000     0.000000000  0.000000000  0.050226017

  length of vectors
     8.358002154  8.358002154 19.910000000     0.119645817  0.119645817  0.050226017



 k-points in units of 2pi/SCALE and weight: KPOINTS created by Atomic Simulation Env
   0.02991145  0.02991145  0.00000000       0.500
  -0.02991145  0.02991145  0.00000000       0.500

 k-points in reciprocal lattice and weights: KPOINTS created by Atomic Simulation Env
   0.25000000  0.25000000  0.00000000       0.500
  -0.25000000  0.25000000  0.00000000       0.500

 position of ions in fractional coordinates (direct lattice) 
   0.16666667  0.16666667  0.00000000
   0.50000000  0.16666667  0.00000000
   0.83333333  0.16666667  0.00000000
   0.16666667  0.50000000  0.00000000
   0.50000000  0.50000000  0.00000000
   0.83333333  0.50000000  0.00000000
   0.16666667  0.83333333  0.00000000
   0.50000000  0.83333333  0.00000000
   0.83333333  0.83333333  0.00000000
   0.00000000  0.00000000  0.09894525
   0.33333333  0.00000000  0.09894525
   0.66666667  0.00000000  0.09894525
   0.00000000  0.33333333  0.09894525
   0.33333333  0.33333333  0.09894525
   0.66666667  0.33333333  0.09894525
   0.00000000  0.66666667  0.09894525
   0.33333333  0.66666667  0.09894525
   0.66666667  0.66666667  0.09894525
   0.16643790  0.16673390  0.19918736
   0.49816454  0.16779938  0.19903144
   0.83283551  0.16593924  0.19932721
   0.17380588  0.49990019  0.19821371
   0.50181913  0.50268367  0.20029396
   0.83728012  0.49931361  0.19862365
   0.17174893  0.83230322  0.19923721
   0.50045116  0.83032345  0.20160570
   0.83510487  0.82988064  0.19988231
   0.99682074  0.99601555  0.29748546
   0.33161782  0.00227981  0.29861557
   0.66545887  0.99867545  0.29805905
   0.00473286  0.32904421  0.30030926
   0.33940620  0.33013674  0.30426744
   0.67078361  0.33090148  0.29863635
   0.01325126  0.66679823  0.30004018
   0.34936754  0.67006868  0.31240951
   0.67546842  0.66213973  0.30193076
   0.51843794  0.25373461  0.34186080
   0.52760772  0.61556919  0.35722355
   0.17023324  0.49706218  0.36276412

 position of ions in cartesian coordinates  (Angst):
   1.39300036  1.39300036  0.00000000
   4.17900108  1.39300036  0.00000000
   6.96500179  1.39300036  0.00000000
   1.39300036  4.17900108  0.00000000
   4.17900108  4.17900108  0.00000000
   6.96500179  4.17900108  0.00000000
   1.39300036  6.96500179  0.00000000
   4.17900108  6.96500179  0.00000000
   6.96500179  6.96500179  0.00000000
   0.00000000  0.00000000  1.97000000
   2.78600072  0.00000000  1.97000000
   5.57200144  0.00000000  1.97000000
   0.00000000  2.78600072  1.97000000
   2.78600072  2.78600072  1.97000000
   5.57200144  2.78600072  1.97000000
   0.00000000  5.57200144  1.97000000
   2.78600072  5.57200144  1.97000000
   5.57200144  5.57200144  1.97000000
   1.39108833  1.39356232  3.96582031
   4.16366031  1.40246761  3.96271606
   6.96084097  1.38692051  3.96860482
   1.45266992  4.17816690  3.94643505
   4.19420541  4.20143124  3.98785278
   6.99798905  4.17326423  3.95459696
   1.43547789  6.95639210  3.96681290
   4.18277183  6.93984521  4.01396947
   6.97980830  6.93614414  3.97965684
   8.33142987  8.32470014  5.92293552
   2.77166244  0.01905465  5.94543597
   5.56190665  8.34693158  5.93435574
   0.03955724  2.75015219  5.97915731
   2.83675772  2.75928360  6.05796482
   5.60641086  2.76567530  5.94584969
   0.11075404  5.57310100  5.97380000
   2.92001464  5.60043547  6.22007332
   5.64556655  5.53416526  6.01144143
   4.33310544  2.12071444  6.80644845
   4.40974644  5.14492860  7.11232088
   1.42280982  4.15444677  7.22263368



--------------------------------------------------------------------------------------------------------


 k-point     1 :   0.2500 0.2500 0.0000  plane waves:   25289
 k-point     2 :  -0.2500 0.2500 0.0000  plane waves:   25289

 maximum and minimum number of plane-waves per node :      1059     1047

 maximum number of plane-waves:     25289
 maximum index in each direction: 
   IXMAX=   13   IYMAX=   13   IZMAX=   32
   IXMIN=  -13   IYMIN=  -13   IZMIN=  -32


 real space projection operators:
  total allocation   :      24828.12 KBytes
  max/ min on nodes  :       1370.82        859.50


 parallel 3D FFT for wavefunctions:
    minimum data exchange during FFTs selected (reduces bandwidth)
 parallel 3D FFT for charge:
    minimum data exchange during FFTs selected (reduces bandwidth)


 total amount of memory used by VASP MPI-rank0    49453. kBytes
=======================================================================

   base      :      30000. kBytes
   nonlr-proj:       4895. kBytes
   fftplans  :       3716. kBytes
   grid      :       6996. kBytes
   one-center:         31. kBytes
   wavefun   :       3815. kBytes

     INWAV:  cpu time      0.0000: real time      0.0000
 Broyden mixing: mesh for mixing (old mesh)
   NGX = 27   NGY = 27   NGZ = 65
  (NGX  =112   NGY  =112   NGZ  =280)
  gives a total of  47385 points

 initial charge density was supplied:
 charge density of overlapping atoms calculated
 number of electron     368.0000000 magnetization 
 keeping initial charge density in first step


--------------------------------------------------------------------------------------------------------


 Maximum index for non-local projection operator          501
 Maximum index for augmentation-charges          744 (set IRDMAX)


--------------------------------------------------------------------------------------------------------


 First call to EWALD:  gamma=   0.159
 Maximum number of real-space cells 4x 4x 2
 Maximum number of reciprocal cells 2x 2x 5

    FEWALD:  cpu time      0.0014: real time      0.0015


--------------------------------------- Ionic step        1  -------------------------------------------




--------------------------------------- Iteration      1(   1)  ---------------------------------------


    POTLOK:  cpu time      0.0432: real time      0.0446
    SETDIJ:  cpu time      0.0077: real time      0.0078
     EDDAV:  cpu time      0.9639: real time      0.9699
       DOS:  cpu time      0.0007: real time      0.0007
    --------------------------------------------
      LOOP:  cpu time      1.0155: real time      1.0229

 eigenvalue-minimisations  :   880
 total energy-change (2. order) : 0.2116536E+04  (-0.1473254E+05)
 number of electron     368.0000000 magnetization 
 augmentation part      368.0000000 magnetization 

 DIPCOR: dipole corrections for dipol
 direction  3 min pos   184,
 dipolmoment           0.000000      0.000000     -0.000027 electrons x Angstroem
 Tr[quadrupol]     -4536.003220

 energy correction for charged system         0.000000 eV
 dipol+quadrupol energy correction           -0.000000 eV
 added-field ion interaction          0.000024 eV  (added to PSCEN)


 Free energy of the ion-electron system (eV)
  ---------------------------------------------------
  alpha Z        PSCENC =       628.75267292
  Ewald energy   TEWEN  =     74941.32636096
  -Hartree energ DENC   =   -105677.75365346
  -exchange      EXHF   =         0.00000000
  -V(xc)+E(xc)   XCENC  =     -1046.19326540
  PAW double counting   =     29264.33151030   -27021.15649540
  entropy T*S    EENTRO =        -0.00803102
  eigenvalues    EBANDS =      1574.68135178
  atomic energy  EATOM  =     29452.55580095
  Solvation  Ediel_sol  =         0.00000000
  ---------------------------------------------------
  free energy    TOTEN  =      2116.53625163 eV

  energy without entropy =     2116.54428265  energy(sigma->0) =     2116.53892864


--------------------------------------------------------------------------------------------------------




--------------------------------------- Iteration      1(   2)  ---------------------------------------


     EDDAV:  cpu time      0.9830: real time      0.9885
       DOS:  cpu time      0.0009: real time      0.0009
    --------------------------------------------
      LOOP:  cpu time      0.9840: real time      0.9895

 eigenvalue-minimisations  :   992
 total energy-change (2. order) :-0.2180487E+04  (-0.2042896E+04)
 number of electron     368.0000000 magnetization 
 augmentation part      368.0000000 magnetization 

 DIPCOR: dipole corrections for dipol
 direction  3 min pos   184,
 dipolmoment           0.000000      0.000000     -0.000027 electrons x Angstroem
 Tr[quadrupol]     -4536.003220

 energy correction for charged system         0.000000 eV
 dipol+quadrupol energy correction           -0.000000 eV
 added-field ion interaction          0.000024 eV  (added to PSCEN)


 Free energy of the ion-electron system (eV)
  ---------------------------------------------------
  alpha Z        PSCENC =       628.75267292
  Ewald energy   TEWEN  =     74941.32636096
  -Hartree energ DENC   =   -105677.75365346
  -exchange      EXHF   =         0.00000000
  -V(xc)+E(xc)   XCENC  =     -1046.19326540
  PAW double counting   =     29264.33151030   -27021.15649540
  entropy T*S    EENTRO =         0.00082417
  eigenvalues    EBANDS =      -605.81498872
  atomic energy  EATOM  =     29452.55580095
  Solvation  Ediel_sol  =         0.00000000
  ---------------------------------------------------
  free energy    TOTEN  =       -63.95123368 eV

  energy without entropy =      -63.95205785  energy(sigma->0) =      -63.95150840


--------------------------------------------------------------------------------------------------------




--------------------------------------- Iteration      1(   3)  ---------------------------------------


     EDDAV:  cpu time      0.9933: real time      0.9987
       DOS:  cpu time      0.0008: real time      0.0008
    --------------------------------------------
      LOOP:  cpu time      0.9941: real time      0.9995

 eigenvalue-minimisations  :  1000
 total energy-change (2. order) :-0.1285657E+03  (-0.1136092E+03)
 number of electron     368.0000000 magnetization 
 augmentation part      368.0000000 magnetization 

 DIPCOR: dipole corrections for dipol
 direction  3 min pos   184,
 dipolmoment           0.000000      0.000000     -0.000027 electrons x Angstroem
 Tr[quadrupol]     -4536.003220

 energy correction for charged system         0.000000 eV
 dipol+quadrupol energy correction           -0.000000 eV
 added-field ion interaction          0.000024 eV  (added to PSCEN)


 Free energy of the ion-electron system (eV)
  ---------------------------------------------------
  alpha Z        PSCENC =       628.75267292
  Ewald energy   TEWEN  =     74941.32636096
  -Hartree energ DENC   =   -105677.75365346
  -exchange      EXHF   =         0.00000000
  -V(xc)+E(xc)   XCENC  =     -1046.19326540
  PAW double counting   =     29264.33151030   -27021.15649540
  entropy T*S    EENTRO =        -0.07151175
  eigenvalues    EBANDS =      -734.30836165
  atomic energy  EATOM  =     29452.55580095
  Solvation  Ediel_sol  =         0.00000000
  ---------------------------------------------------
  free energy    TOTEN  =      -192.51694253 eV

  energy without entropy =     -192.44543078  energy(sigma->0) =     -192.49310528


--------------------------------------------------------------------------------------------------------




--------------------------------------- Iteration      1(   4)  ---------------------------------------


     EDDAV:  cpu time      1.0002: real time      1.0061
       DOS:  cpu time      0.0006: real time      0.0006
    --------------------------------------------
      LOOP:  cpu time      1.0009: real time      1.0067

 eigenvalue-minimisations  :  1016
 total energy-change (2. order) :-0.5035610E+01  (-0.4910535E+01)
 number of electron     368.0000000 magnetization 
 augmentation part      368.0000000 magnetization 

 DIPCOR: dipole corrections for dipol
 direction  3 min pos   184,
 dipolmoment           0.000000      0.000000     -0.000027 electrons x Angstroem
 Tr[quadrupol]     -4536.003220

 energy correction for charged system         0.000000 eV
 dipol+quadrupol energy correction           -0.000000 eV
 added-field ion interaction          0.000024 eV  (added to PSCEN)


 Free energy of the ion-electron system (eV)
  ---------------------------------------------------
  alpha Z        PSCENC =       628.75267292
  Ewald energy   TEWEN  =     74941.32636096
  -Hartree energ DENC   =   -105677.75365346
  -exchange      EXHF   =         0.00000000
  -V(xc)+E(xc)   XCENC  =     -1046.19326540
  PAW double counting   =     29264.33151030   -27021.15649540
  entropy T*S    EENTRO =        -0.07647020
  eigenvalues    EBANDS =      -739.33901284
  atomic energy  EATOM  =     29452.55580095
  Solvation  Ediel_sol  =         0.00000000
  ---------------------------------------------------
  free energy    TOTEN  =      -197.55255217 eV

  energy without entropy =     -197.47608197  energy(sigma->0) =     -197.52706210


--------------------------------------------------------------------------------------------------------




--------------------------------------- Iteration      1(   5)  ---------------------------------------


     EDDAV:  cpu time      1.0140: real time      1.0194
       DOS:  cpu time      0.0007: real time      0.0007
    CHARGE:  cpu time      0.0458: real time      0.0461
    MIXING:  cpu time      0.0009: real time      0.0009
    --------------------------------------------
      LOOP:  cpu time      1.0614: real time      1.0671

 eigenvalue-minimisations  :  1056
 total energy-change (2. order) :-0.1833224E+00  (-0.1830228E+00)
 number of electron     368.0000004 magnetization 
 augmentation part      145.5041278 magnetization 

 DIPCOR: dipole corrections for dipol
 direction  3 min pos   184,
 dipolmoment           0.000000      0.000000     -0.000027 electrons x Angstroem
 Tr[quadrupol]     -4536.003220

 energy correction for charged system         0.000000 eV
 dipol+quadrupol energy correction           -0.000000 eV
 added-field ion interaction          0.000024 eV  (added to PSCEN)


 Broyden mixing:
  rms(total) = 0.37848E+01    rms(broyden)= 0.37845E+01
  rms(prec ) = 0.38935E+01
  weight for this iteration     100.00

 Free energy of the ion-electron system (eV)
  ---------------------------------------------------
  alpha Z        PSCENC =       628.75267292
  Ewald energy   TEWEN  =     74941.32636096
  -Hartree energ DENC   =   -105677.75365346
  -exchange      EXHF   =         0.00000000
  -V(xc)+E(xc)   XCENC  =     -1046.19326540
  PAW double counting   =     29264.33151030   -27021.15649540
  entropy T*S    EENTRO =        -0.07645483
  eigenvalues    EBANDS =      -739.52235060
  atomic energy  EATOM  =     29452.55580095
  Solvation  Ediel_sol  =         0.00000000
  ---------------------------------------------------
  free energy    TOTEN  =      -197.73587455 eV

  energy without entropy =     -197.65941973  energy(sigma->0) =     -197.71038961


--------------------------------------------------------------------------------------------------------




--------------------------------------- Iteration      1(   6)  ---------------------------------------


    POTLOK:  cpu time      0.0358: real time      0.0360
    SETDIJ:  cpu time      0.0076: real time      0.0076
    EDDIAG:  cpu time      0.1497: real time      0.1512
  RMM-DIIS:  cpu time      0.5284: real time      0.5312
    ORTHCH:  cpu time      0.0226: real time      0.0227
       DOS:  cpu time      0.0006: real time      0.0006
    CHARGE:  cpu time      0.0430: real time      0.0432
    MIXING:  cpu time      0.0009: real time      0.0009
    --------------------------------------------
      LOOP:  cpu time      0.7886: real time      0.7934

 eigenvalue-minimisations  :   919
 total energy-change (2. order) : 0.3554929E+01  (-0.2943572E+01)
 number of electron     368.0000007 magnetization 
 augmentation part      149.8520208 magnetization 

 DIPCOR: dipole corrections for dipol
 direction  3 min pos   189,
 dipolmoment           0.000000      0.000000     -0.412484 electrons x Angstroem
 Tr[quadrupol]     -4539.161924

 energy correction for charged system         0.000000 eV
 dipol+quadrupol energy correction           -0.011069 eV
 added-field ion interaction         -6.660556 eV  (added to PSCEN)


 Broyden mixing:
  rms(total) = 0.28050E+01    rms(broyden)= 0.28049E+01
  rms(prec ) = 0.36641E+01
  weight for this iteration     100.00

 eigenvalues of (default mixing * dielectric matrix)
  average eigenvalue GAMMA=   0.9345
  0.9345

 Free energy of the ion-electron system (eV)
  ---------------------------------------------------
  alpha Z        PSCENC =       622.08102429
  Ewald energy   TEWEN  =     74941.32636096
  -Hartree energ DENC   =   -105544.72881601
  -exchange      EXHF   =         0.00000000
  -V(xc)+E(xc)   XCENC  =     -1052.84067210
  PAW double counting   =     31246.12572791   -29041.63325858
  entropy T*S    EENTRO =        -0.01830794
  eigenvalues    EBANDS =      -817.04880467
  atomic energy  EATOM  =     29452.55580095
  Solvation  Ediel_sol  =         0.00000000
  ---------------------------------------------------
  free energy    TOTEN  =      -194.18094521 eV

  energy without entropy =     -194.16263726  energy(sigma->0) =     -194.17484256


--------------------------------------------------------------------------------------------------------




--------------------------------------- Iteration      1(   7)  ---------------------------------------


    POTLOK:  cpu time      0.0351: real time      0.0353
    SETDIJ:  cpu time      0.0075: real time      0.0075
    EDDIAG:  cpu time      0.1476: real time      0.1482
  RMM-DIIS:  cpu time      0.5923: real time      0.5955
    ORTHCH:  cpu time      0.0227: real time      0.0228
       DOS:  cpu time      0.0005: real time      0.0005
    CHARGE:  cpu time      0.0439: real time      0.0440
    MIXING:  cpu time      0.0009: real time      0.0009
    --------------------------------------------
      LOOP:  cpu time      0.8505: real time      0.8547

 eigenvalue-minimisations  :  1043
 total energy-change (2. order) :-0.7124204E+02  (-0.4500973E+01)
 number of electron     367.9999997 magnetization 
 augmentation part      146.7718317 magnetization 

 DIPCOR: dipole corrections for dipol
 direction  3 min pos   184,
 dipolmoment           0.000000      0.000000      2.262392 electrons x Angstroem
 Tr[quadrupol]     -4540.749229

 energy correction for charged system         0.000000 eV
 dipol+quadrupol energy correction           -0.332976 eV
 added-field ion interaction         -1.981003 eV  (added to PSCEN)


 Broyden mixing:
  rms(total) = 0.58834E+01    rms(broyden)= 0.58832E+01
  rms(prec ) = 0.95382E+01
  weight for this iteration     100.00

 eigenvalues of (default mixing * dielectric matrix)
  average eigenvalue GAMMA=   0.7986
  1.4677  0.1294

 Free energy of the ion-electron system (eV)
  ---------------------------------------------------
  alpha Z        PSCENC =       626.43866978
  Ewald energy   TEWEN  =     74941.32636096
  -Hartree energ DENC   =   -105565.90710091
  -exchange      EXHF   =         0.00000000
  -V(xc)+E(xc)   XCENC  =     -1053.42187707
  PAW double counting   =     31934.57772948   -29740.32862491
  entropy T*S    EENTRO =         0.01073934
  eigenvalues    EBANDS =      -860.67468506
  atomic energy  EATOM  =     29452.55580095
  Solvation  Ediel_sol  =         0.00000000
  ---------------------------------------------------
  free energy    TOTEN  =      -265.42298744 eV

  energy without entropy =     -265.43372678  energy(sigma->0) =     -265.42656722


--------------------------------------------------------------------------------------------------------




--------------------------------------- Iteration      1(   8)  ---------------------------------------


    POTLOK:  cpu time      0.0346: real time      0.0348
    SETDIJ:  cpu time      0.0081: real time      0.0081
    EDDIAG:  cpu time      0.1473: real time      0.1480
  RMM-DIIS:  cpu time      0.5575: real time      0.5605
    ORTHCH:  cpu time      0.0225: real time      0.0225
       DOS:  cpu time      0.0006: real time      0.0006
    CHARGE:  cpu time      0.0430: real time      0.0432
    MIXING:  cpu time      0.0009: real time      0.0009
    --------------------------------------------
      LOOP:  cpu time      0.8145: real time      0.8186

 eigenvalue-minimisations  :   969
 total energy-change (2. order) : 0.5122654E+02  (-0.3843684E+01)
 number of electron     368.0000002 magnetization 
 augmentation part      150.4534244 magnetization 

 DIPCOR: dipole corrections for dipol
 direction  3 min pos   192,
 dipolmoment           0.000000      0.000000      0.223508 electrons x Angstroem
 Tr[quadrupol]     -4544.300701

 energy correction for charged system         0.000000 eV
 dipol+quadrupol energy correction           -0.003250 eV
 added-field ion interaction          5.891968 eV  (added to PSCEN)


 Broyden mixing:
  rms(total) = 0.40583E+01    rms(broyden)= 0.40580E+01
  rms(prec ) = 0.52398E+01
  weight for this iteration     100.00

 eigenvalues of (default mixing * dielectric matrix)
  average eigenvalue GAMMA=   0.6988
  1.7416  0.2119  0.1429

 Free energy of the ion-electron system (eV)
  ---------------------------------------------------
  alpha Z        PSCENC =       634.64136679
  Ewald energy   TEWEN  =     74941.32636096
  -Hartree energ DENC   =   -105596.52254246
  -exchange      EXHF   =         0.00000000
  -V(xc)+E(xc)   XCENC  =     -1055.31684332
  PAW double counting   =     32948.03114419   -30773.38042159
  entropy T*S    EENTRO =         0.01348174
  eigenvalues    EBANDS =      -765.54479263
  atomic energy  EATOM  =     29452.55580095
  Solvation  Ediel_sol  =         0.00000000
  ---------------------------------------------------
  free energy    TOTEN  =      -214.19644537 eV

  energy without entropy =     -214.20992711  energy(sigma->0) =     -214.20093928


--------------------------------------------------------------------------------------------------------




--------------------------------------- Iteration      1(   9)  ---------------------------------------


    POTLOK:  cpu time      0.0349: real time      0.0351
    SETDIJ:  cpu time      0.0083: real time      0.0083
    EDDIAG:  cpu time      0.1471: real time      0.1477
  RMM-DIIS:  cpu time      0.5393: real time      0.5422
    ORTHCH:  cpu time      0.0226: real time      0.0227
       DOS:  cpu time      0.0005: real time      0.0006
    CHARGE:  cpu time      0.0425: real time      0.0426
    MIXING:  cpu time      0.0009: real time      0.0009
    --------------------------------------------
      LOOP:  cpu time      0.7961: real time      0.8000

 eigenvalue-minimisations  :   938
 total energy-change (2. order) : 0.1991286E+02  (-0.1799450E+01)
 number of electron     368.0000004 magnetization 
 augmentation part      152.7642480 magnetization 

 DIPCOR: dipole corrections for dipol
 direction  3 min pos   194,
 dipolmoment           0.000000      0.000000      0.006781 electrons x Angstroem
 Tr[quadrupol]     -4541.840717

 energy correction for charged system         0.000000 eV
 dipol+quadrupol energy correction           -0.000003 eV
 added-field ion interaction          0.224940 eV  (added to PSCEN)


 Broyden mixing:
  rms(total) = 0.19326E+01    rms(broyden)= 0.19322E+01
  rms(prec ) = 0.23312E+01
  weight for this iteration     100.00

 eigenvalues of (default mixing * dielectric matrix)
  average eigenvalue GAMMA=   0.6413
  1.8465  0.1467  0.3034  0.2685

 Free energy of the ion-electron system (eV)
  ---------------------------------------------------
  alpha Z        PSCENC =       628.97758615
  Ewald energy   TEWEN  =     74941.32636096
  -Hartree energ DENC   =   -105526.70215008
  -exchange      EXHF   =         0.00000000
  -V(xc)+E(xc)   XCENC  =     -1055.34321660
  PAW double counting   =     33434.45905120   -31267.10264372
  entropy T*S    EENTRO =         0.00690736
  eigenvalues    EBANDS =      -802.46128031
  atomic energy  EATOM  =     29452.55580095
  Solvation  Ediel_sol  =         0.00000000
  ---------------------------------------------------
  free energy    TOTEN  =      -194.28358410 eV

  energy without entropy =     -194.29049146  energy(sigma->0) =     -194.28588655


--------------------------------------------------------------------------------------------------------




--------------------------------------- Iteration      1(  10)  ---------------------------------------


    POTLOK:  cpu time      0.0349: real time      0.0351
    SETDIJ:  cpu time      0.0084: real time      0.0085
    EDDIAG:  cpu time      0.1476: real time      0.1482
  RMM-DIIS:  cpu time      0.5348: real time      0.5377
    ORTHCH:  cpu time      0.0225: real time      0.0226
       DOS:  cpu time      0.0006: real time      0.0006
    CHARGE:  cpu time      0.0425: real time      0.0426
    MIXING:  cpu time      0.0009: real time      0.0009
    --------------------------------------------
      LOOP:  cpu time      0.7921: real time      0.7961

 eigenvalue-minimisations  :   930
 total energy-change (2. order) : 0.4090944E+01  (-0.9416314E+00)
 number of electron     368.0000005 magnetization 
 augmentation part      152.1253827 magnetization 

 DIPCOR: dipole corrections for dipol
 direction  3 min pos   195,
 dipolmoment           0.000000      0.000000     -0.150380 electrons x Angstroem
 Tr[quadrupol]     -4542.070000

 energy correction for charged system         0.000000 eV
 dipol+quadrupol energy correction           -0.001471 eV
 added-field ion interaction         -5.500169 eV  (added to PSCEN)


 Broyden mixing:
  rms(total) = 0.12620E+01    rms(broyden)= 0.12612E+01
  rms(prec ) = 0.14835E+01
  weight for this iteration     100.00

 eigenvalues of (default mixing * dielectric matrix)
  average eigenvalue GAMMA=   0.6390
  1.8667  0.6763  0.1437  0.2763  0.2320

 Free energy of the ion-electron system (eV)
  ---------------------------------------------------
  alpha Z        PSCENC =       623.25100847
  Ewald energy   TEWEN  =     74941.32636096
  -Hartree energ DENC   =   -105561.83033580
  -exchange      EXHF   =         0.00000000
  -V(xc)+E(xc)   XCENC  =     -1054.69071843
  PAW double counting   =     33710.80298718   -31543.77881929
  entropy T*S    EENTRO =        -0.02280209
  eigenvalues    EBANDS =      -757.80612236
  atomic energy  EATOM  =     29452.55580095
  Solvation  Ediel_sol  =         0.00000000
  ---------------------------------------------------
  free energy    TOTEN  =      -190.19264042 eV

  energy without entropy =     -190.16983833  energy(sigma->0) =     -190.18503973


--------------------------------------------------------------------------------------------------------




--------------------------------------- Iteration      1(  11)  ---------------------------------------


    POTLOK:  cpu time      0.0348: real time      0.0350
    SETDIJ:  cpu time      0.0085: real time      0.0085
    EDDIAG:  cpu time      0.1470: real time      0.1476
  RMM-DIIS:  cpu time      0.5371: real time      0.5399
    ORTHCH:  cpu time      0.0228: real time      0.0229
       DOS:  cpu time      0.0005: real time      0.0005
    CHARGE:  cpu time      0.0424: real time      0.0427
    MIXING:  cpu time      0.0009: real time      0.0009
    --------------------------------------------
      LOOP:  cpu time      0.7941: real time      0.7980

 eigenvalue-minimisations  :   933
 total energy-change (2. order) : 0.5140288E-01  (-0.3821114E+00)
 number of electron     368.0000005 magnetization 
 augmentation part      151.1139975 magnetization 

 DIPCOR: dipole corrections for dipol
 direction  3 min pos   184,
 dipolmoment           0.000000      0.000000      0.034906 electrons x Angstroem
 Tr[quadrupol]     -4543.186246

 energy correction for charged system         0.000000 eV
 dipol+quadrupol energy correction           -0.000079 eV
 added-field ion interaction         -0.030564 eV  (added to PSCEN)


 Broyden mixing:
  rms(total) = 0.12170E+01    rms(broyden)= 0.12167E+01
  rms(prec ) = 0.15344E+01
  weight for this iteration     100.00

 eigenvalues of (default mixing * dielectric matrix)
  average eigenvalue GAMMA=   0.6023
  1.8767  0.8205  0.2777  0.2777  0.1410  0.2201

 Free energy of the ion-electron system (eV)
  ---------------------------------------------------
  alpha Z        PSCENC =       628.72200528
  Ewald energy   TEWEN  =     74941.32636096
  -Hartree energ DENC   =   -105620.19979873
  -exchange      EXHF   =         0.00000000
  -V(xc)+E(xc)   XCENC  =     -1053.87289457
  PAW double counting   =     33925.90229530   -31757.13133499
  entropy T*S    EENTRO =        -0.00704746
  eigenvalues    EBANDS =      -707.43662429
  atomic energy  EATOM  =     29452.55580095
  Solvation  Ediel_sol  =         0.00000000
  ---------------------------------------------------
  free energy    TOTEN  =      -190.14123755 eV

  energy without entropy =     -190.13419009  energy(sigma->0) =     -190.13888840


--------------------------------------------------------------------------------------------------------




--------------------------------------- Iteration      1(  12)  ---------------------------------------


    POTLOK:  cpu time      0.0347: real time      0.0349
    SETDIJ:  cpu time      0.0089: real time      0.0090
    EDDIAG:  cpu time      0.1488: real time      0.1495
  RMM-DIIS:  cpu time      0.5318: real time      0.5347
    ORTHCH:  cpu time      0.0224: real time      0.0225
       DOS:  cpu time      0.0006: real time      0.0006
    CHARGE:  cpu time      0.0424: real time      0.0426
    MIXING:  cpu time      0.0009: real time      0.0009
    --------------------------------------------
      LOOP:  cpu time      0.7906: real time      0.7946

 eigenvalue-minimisations  :   932
 total energy-change (2. order) : 0.1002182E+01  (-0.2018275E+00)
 number of electron     368.0000005 magnetization 
 augmentation part      151.1301727 magnetization 

 DIPCOR: dipole corrections for dipol
 direction  3 min pos   189,
 dipolmoment           0.000000      0.000000     -0.022027 electrons x Angstroem
 Tr[quadrupol]     -4542.937531

 energy correction for charged system         0.000000 eV
 dipol+quadrupol energy correction           -0.000032 eV
 added-field ion interaction         -0.355676 eV  (added to PSCEN)


 Broyden mixing:
  rms(total) = 0.73034E+00    rms(broyden)= 0.72998E+00
  rms(prec ) = 0.86224E+00
  weight for this iteration     100.00

 eigenvalues of (default mixing * dielectric matrix)
  average eigenvalue GAMMA=   0.5941
  1.9871  0.6223  0.6223  0.3946  0.1406  0.1959  0.1959

 Free energy of the ion-electron system (eV)
  ---------------------------------------------------
  alpha Z        PSCENC =       628.39694149
  Ewald energy   TEWEN  =     74941.32636096
  -Hartree energ DENC   =   -105626.14303741
  -exchange      EXHF   =         0.00000000
  -V(xc)+E(xc)   XCENC  =     -1053.46119876
  PAW double counting   =     34013.55806305   -31843.77372788
  entropy T*S    EENTRO =        -0.05225398
  eigenvalues    EBANDS =      -701.54600436
  atomic energy  EATOM  =     29452.55580095
  Solvation  Ediel_sol  =         0.00000000
  ---------------------------------------------------
  free energy    TOTEN  =      -189.13905594 eV

  energy without entropy =     -189.08680196  energy(sigma->0) =     -189.12163795


--------------------------------------------------------------------------------------------------------




--------------------------------------- Iteration      1(  13)  ---------------------------------------


    POTLOK:  cpu time      0.0347: real time      0.0348
    SETDIJ:  cpu time      0.0092: real time      0.0092
    EDDIAG:  cpu time      0.1480: real time      0.1486
  RMM-DIIS:  cpu time      0.5337: real time      0.5365
    ORTHCH:  cpu time      0.0225: real time      0.0226
       DOS:  cpu time      0.0006: real time      0.0006
    CHARGE:  cpu time      0.0422: real time      0.0424
    MIXING:  cpu time      0.0010: real time      0.0010
    --------------------------------------------
      LOOP:  cpu time      0.7919: real time      0.7958

 eigenvalue-minimisations  :   922
 total energy-change (2. order) : 0.2360845E+00  (-0.8175582E-01)
 number of electron     368.0000005 magnetization 
 augmentation part      151.1265107 magnetization 

 DIPCOR: dipole corrections for dipol
 direction  3 min pos   192,
 dipolmoment           0.000000      0.000000     -0.020616 electrons x Angstroem
 Tr[quadrupol]     -4543.449179

 energy correction for charged system         0.000000 eV
 dipol+quadrupol energy correction           -0.000028 eV
 added-field ion interaction         -0.543466 eV  (added to PSCEN)


 Broyden mixing:
  rms(total) = 0.48801E+00    rms(broyden)= 0.48785E+00
  rms(prec ) = 0.56788E+00
  weight for this iteration     100.00

 eigenvalues of (default mixing * dielectric matrix)
  average eigenvalue GAMMA=   0.6141
  2.0907  0.8406  0.8406  0.2937  0.2937  0.1407  0.2065  0.2065

 Free energy of the ion-electron system (eV)
  ---------------------------------------------------
  alpha Z        PSCENC =       628.20915562
  Ewald energy   TEWEN  =     74941.32636096
  -Hartree energ DENC   =   -105635.89979110
  -exchange      EXHF   =         0.00000000
  -V(xc)+E(xc)   XCENC  =     -1053.48824429
  PAW double counting   =     34113.26110176   -31944.19402944
  entropy T*S    EENTRO =        -0.08998696
  eigenvalues    EBANDS =      -690.58333898
  atomic energy  EATOM  =     29452.55580095
  Solvation  Ediel_sol  =         0.00000000
  ---------------------------------------------------
  free energy    TOTEN  =      -188.90297149 eV

  energy without entropy =     -188.81298452  energy(sigma->0) =     -188.87297583


--------------------------------------------------------------------------------------------------------




--------------------------------------- Iteration      1(  14)  ---------------------------------------


    POTLOK:  cpu time      0.0349: real time      0.0351
    SETDIJ:  cpu time      0.0090: real time      0.0090
    EDDIAG:  cpu time      0.1480: real time      0.1486
  RMM-DIIS:  cpu time      0.5369: real time      0.5397
    ORTHCH:  cpu time      0.0225: real time      0.0226
       DOS:  cpu time      0.0006: real time      0.0006
    CHARGE:  cpu time      0.0424: real time      0.0426
    MIXING:  cpu time      0.0010: real time      0.0010
    --------------------------------------------
      LOOP:  cpu time      0.7953: real time      0.7992

 eigenvalue-minimisations  :   926
 total energy-change (2. order) : 0.9610647E-01  (-0.3445984E-01)
 number of electron     368.0000005 magnetization 
 augmentation part      151.1765760 magnetization 

 DIPCOR: dipole corrections for dipol
 direction  3 min pos   193,
 dipolmoment           0.000000      0.000000     -0.022751 electrons x Angstroem
 Tr[quadrupol]     -4543.755904

 energy correction for charged system         0.000000 eV
 dipol+quadrupol energy correction           -0.000034 eV
 added-field ion interaction         -0.677206 eV  (added to PSCEN)


 Broyden mixing:
  rms(total) = 0.36954E+00    rms(broyden)= 0.36937E+00
  rms(prec ) = 0.43489E+00
  weight for this iteration     100.00

 eigenvalues of (default mixing * dielectric matrix)
  average eigenvalue GAMMA=   0.6214
  2.1361  0.9889  0.9889  0.3626  0.3626  0.1406  0.2048  0.2048  0.2037

 Free energy of the ion-electron system (eV)
  ---------------------------------------------------
  alpha Z        PSCENC =       628.07540907
  Ewald energy   TEWEN  =     74941.32636096
  -Hartree energ DENC   =   -105640.66977651
  -exchange      EXHF   =         0.00000000
  -V(xc)+E(xc)   XCENC  =     -1053.53475626
  PAW double counting   =     34187.86667824   -32019.39185705
  entropy T*S    EENTRO =        -0.11068870
  eigenvalues    EBANDS =      -684.92403573
  atomic energy  EATOM  =     29452.55580095
  Solvation  Ediel_sol  =         0.00000000
  ---------------------------------------------------
  free energy    TOTEN  =      -188.80686502 eV

  energy without entropy =     -188.69617632  energy(sigma->0) =     -188.76996878


--------------------------------------------------------------------------------------------------------




--------------------------------------- Iteration      1(  15)  ---------------------------------------


    POTLOK:  cpu time      0.0349: real time      0.0351
    SETDIJ:  cpu time      0.0091: real time      0.0091
    EDDIAG:  cpu time      0.1464: real time      0.1471
  RMM-DIIS:  cpu time      0.5342: real time      0.5370
    ORTHCH:  cpu time      0.0224: real time      0.0225
       DOS:  cpu time      0.0005: real time      0.0005
    CHARGE:  cpu time      0.0422: real time      0.0423
    MIXING:  cpu time      0.0010: real time      0.0010
    --------------------------------------------
      LOOP:  cpu time      0.7907: real time      0.7946

 eigenvalue-minimisations  :   924
 total energy-change (2. order) : 0.8189484E-01  (-0.1556176E-01)
 number of electron     368.0000005 magnetization 
 augmentation part      151.2423391 magnetization 

 DIPCOR: dipole corrections for dipol
 direction  3 min pos   193,
 dipolmoment           0.000000      0.000000      0.002687 electrons x Angstroem
 Tr[quadrupol]     -4544.002705

 energy correction for charged system         0.000000 eV
 dipol+quadrupol energy correction           -0.000000 eV
 added-field ion interaction          0.079968 eV  (added to PSCEN)


 Broyden mixing:
  rms(total) = 0.25416E+00    rms(broyden)= 0.25407E+00
  rms(prec ) = 0.30865E+00
  weight for this iteration     100.00

 eigenvalues of (default mixing * dielectric matrix)
  average eigenvalue GAMMA=   0.6220
  2.1325  1.1377  1.1377  0.4094  0.4094  0.1406  0.2336  0.2336  0.1927  0.1927

 Free energy of the ion-electron system (eV)
  ---------------------------------------------------
  alpha Z        PSCENC =       628.83261608
  Ewald energy   TEWEN  =     74941.32636096
  -Hartree energ DENC   =   -105645.48884883
  -exchange      EXHF   =         0.00000000
  -V(xc)+E(xc)   XCENC  =     -1053.52160773
  PAW double counting   =     34219.15123602   -32050.67851877
  entropy T*S    EENTRO =        -0.10802956
  eigenvalues    EBANDS =      -680.79397929
  atomic energy  EATOM  =     29452.55580095
  Solvation  Ediel_sol  =         0.00000000
  ---------------------------------------------------
  free energy    TOTEN  =      -188.72497018 eV

  energy without entropy =     -188.61694062  energy(sigma->0) =     -188.68896033


--------------------------------------------------------------------------------------------------------




--------------------------------------- Iteration      1(  16)  ---------------------------------------


    POTLOK:  cpu time      0.0351: real time      0.0353
    SETDIJ:  cpu time      0.0093: real time      0.0093
    EDDIAG:  cpu time      0.1474: real time      0.1480
  RMM-DIIS:  cpu time      0.5405: real time      0.5434
    ORTHCH:  cpu time      0.0224: real time      0.0225
       DOS:  cpu time      0.0006: real time      0.0006
    CHARGE:  cpu time      0.0429: real time      0.0431
    MIXING:  cpu time      0.0010: real time      0.0010
    --------------------------------------------
      LOOP:  cpu time      0.7994: real time      0.8033

 eigenvalue-minimisations  :   931
 total energy-change (2. order) : 0.1903981E-01  (-0.5669127E-02)
 number of electron     368.0000005 magnetization 
 augmentation part      151.2197715 magnetization 

 DIPCOR: dipole corrections for dipol
 direction  3 min pos   185,
 dipolmoment           0.000000      0.000000      0.047282 electrons x Angstroem
 Tr[quadrupol]     -4544.183377

 energy correction for charged system         0.000000 eV
 dipol+quadrupol energy correction           -0.000145 eV
 added-field ion interaction          0.119577 eV  (added to PSCEN)


 Broyden mixing:
  rms(total) = 0.25040E+00    rms(broyden)= 0.25034E+00
  rms(prec ) = 0.34096E+00
  weight for this iteration     100.00

 eigenvalues of (default mixing * dielectric matrix)
  average eigenvalue GAMMA=   0.6039
  2.1153  1.2236  1.2236  0.4284  0.4284  0.2634  0.2634  0.1406  0.1919  0.1919
  0.1724

 Free energy of the ion-electron system (eV)
  ---------------------------------------------------
  alpha Z        PSCENC =       628.87208010
  Ewald energy   TEWEN  =     74941.32636096
  -Hartree energ DENC   =   -105652.51679175
  -exchange      EXHF   =         0.00000000
  -V(xc)+E(xc)   XCENC  =     -1053.45770142
  PAW double counting   =     34231.39315948   -32062.54812679
  entropy T*S    EENTRO =        -0.09787938
  eigenvalues    EBANDS =      -674.23283251
  atomic energy  EATOM  =     29452.55580095
  Solvation  Ediel_sol  =         0.00000000
  ---------------------------------------------------
  free energy    TOTEN  =      -188.70593037 eV

  energy without entropy =     -188.60805099  energy(sigma->0) =     -188.67330391


--------------------------------------------------------------------------------------------------------




--------------------------------------- Iteration      1(  17)  ---------------------------------------


    POTLOK:  cpu time      0.0347: real time      0.0348
    SETDIJ:  cpu time      0.0095: real time      0.0096
    EDDIAG:  cpu time      0.1482: real time      0.1489
  RMM-DIIS:  cpu time      0.5377: real time      0.5408
    ORTHCH:  cpu time      0.0226: real time      0.0227
       DOS:  cpu time      0.0006: real time      0.0006
    CHARGE:  cpu time      0.0422: real time      0.0423
    MIXING:  cpu time      0.0011: real time      0.0011
    --------------------------------------------
      LOOP:  cpu time      0.7965: real time      0.8007

 eigenvalue-minimisations  :   936
 total energy-change (2. order) : 0.3162207E-01  (-0.2481319E-02)
 number of electron     368.0000005 magnetization 
 augmentation part      151.1889188 magnetization 

 DIPCOR: dipole corrections for dipol
 direction  3 min pos   181,
 dipolmoment           0.000000      0.000000      0.060460 electrons x Angstroem
 Tr[quadrupol]     -4544.299149

 energy correction for charged system         0.000000 eV
 dipol+quadrupol energy correction           -0.000238 eV
[...]
    142      -0.3584      2.00000
    143      -0.3278      2.00000
    144      -0.2986      2.00000
    145      -0.2794      2.00000
    146      -0.2590      2.00000
    147      -0.2292      2.00000
    148      -0.2182      2.00000
    149      -0.1798      2.00000
    150      -0.1487      2.00000
    151      -0.1260      2.00000
    152      -0.0942      2.00000
    153      -0.0686      2.00000
    154      -0.0178      2.00000
    155      -0.0027      2.00000
    156       0.0319      2.00000
    157       0.0456      2.00000
    158       0.0644      2.00000
    159       0.0749      2.00000
    160       0.1022      2.00000
    161       0.1257      2.00000
    162       0.1427      2.00000
    163       0.1706      2.00000
    164       0.1999      2.00000
    165       0.2161      2.00000
    166       0.2523      2.00000
    167       0.2800      2.00001
    168       0.2883      2.00001
    169       0.3038      2.00003
    170       0.3347      2.00019
    171       0.3604      2.00074
    172       0.3790      2.00181
    173       0.3889      2.00282
    174       0.4065      2.00587
    175       0.4126      2.00743
    176       0.4494      2.02513
    177       0.4662      2.03861
    178       0.4841      2.05499
    179       0.4982      2.06611
    180       0.5761      1.82496
    181       0.5848      1.73629
    182       0.5905      1.66947
    183       0.6099      1.40158
    184       0.6334      1.01736
    185       0.6488      0.75979
    186       0.6550      0.65986
    187       0.6695      0.44505
    188       0.6875      0.22738
    189       0.8142     -0.02906
    190       0.8851     -0.00225
    191       0.9113     -0.00064
    192       0.9245     -0.00032
    193       1.2349     -0.00000
    194       1.4023     -0.00000
    195       1.5254     -0.00000
    196       1.5512     -0.00000
    197       1.7099     -0.00000
    198       1.8125     -0.00000
    199       1.9572     -0.00000
    200       2.2195     -0.00000
    201       2.3470     -0.00000
    202       2.5088     -0.00000
    203       2.6994      0.00000
    204       3.0801      0.00000
    205       3.2882      0.00000
    206       3.4278      0.00000
    207       3.5539      0.00000
    208       3.7810      0.00000
    209       3.9627      0.00000
    210       4.1312      0.00000
    211       4.3638      0.00000
    212       4.5003      0.00000
    213       4.6950      0.00000
    214       5.0047      0.00000
    215       5.1301      0.00000
    216       5.2599      0.00000
    217       5.6238      0.00000
    218       5.7535      0.00000
    219       5.8081      0.00000
    220       5.9364      0.00000


--------------------------------------------------------------------------------------------------------


 soft charge-density along one line, spin component           1
         0         1         2         3         4         5         6         7         8         9
 total charge-density along one line

 pseudopotential strength for first ion, spin component:           1
 -6.301  -0.001  -0.000  -0.002  -0.000  -6.367  -0.001  -0.000
 -0.001  -6.242  -0.001   0.001   0.001  -0.001  -6.312  -0.001
 -0.000  -0.001  -6.205  -0.000  -0.003  -0.000  -0.001  -6.276
 -0.002   0.001  -0.000  -6.238   0.000  -0.002   0.001  -0.000
 -0.000   0.001  -0.003   0.000  -6.355  -0.000   0.001  -0.003
 -6.367  -0.001  -0.000  -0.002  -0.000  -6.408  -0.001  -0.000
 -0.001  -6.312  -0.001   0.001   0.001  -0.001  -6.355  -0.001
 -0.000  -0.001  -6.276  -0.000  -0.003  -0.000  -0.001  -6.320
 -0.002   0.001  -0.000  -6.308   0.000  -0.002   0.000  -0.000
 -0.000   0.001  -0.003   0.000  -6.419  -0.000   0.001  -0.002
 -0.000   0.001  -0.026   0.000  -0.001  -0.000   0.001  -0.025
 -0.000   0.001  -0.044   0.000  -0.001  -0.000   0.001  -0.042
 -0.000  -0.018   0.000   0.000   0.000  -0.000  -0.017   0.000
  0.000  -0.000  -0.022  -0.000   0.000   0.000  -0.000  -0.021
 -0.000   0.000  -0.000  -0.018  -0.000  -0.000   0.000  -0.000
 -0.000  -0.020   0.000   0.000   0.000  -0.000  -0.019   0.000
  0.000  -0.000  -0.025  -0.000   0.000   0.000  -0.000  -0.023
 -0.000   0.000  -0.000  -0.020  -0.000  -0.000   0.000  -0.000
 total augmentation occupancy for first ion, spin component:           1
  2.733  -0.018   0.002  -0.024  -0.004  -1.131   0.010  -0.001   0.015   0.002   0.009  -0.002  -0.000  -0.001   0.006   0.000
 -0.018   2.460  -0.011   0.006  -0.008   0.010  -0.985   0.006  -0.003   0.005  -0.025   0.006  -0.220   0.004  -0.001  -0.008
  0.002  -0.011   2.660  -0.003  -0.012  -0.001   0.006  -1.039   0.002   0.006   0.631  -0.169   0.001  -0.111   0.001   0.000
 -0.024   0.006  -0.003   2.471   0.013   0.016  -0.003   0.002  -0.992  -0.007  -0.009   0.002   0.001   0.000  -0.224  -0.000
 -0.004  -0.008  -0.012   0.013   1.606   0.002   0.004   0.007  -0.007  -0.720  -0.013  -0.001  -0.002   0.004  -0.000   0.001
 -1.131   0.010  -0.001   0.016   0.002   1.375  -0.005   0.000  -0.010  -0.001  -0.004   0.000   0.000   0.000  -0.003  -0.000
  0.010  -0.985   0.006  -0.003   0.004  -0.005   1.339  -0.004   0.002  -0.003   0.010  -0.000   0.257  -0.002   0.000  -0.021
 -0.001   0.006  -1.039   0.002   0.007   0.000  -0.004   1.301  -0.001  -0.005  -0.381   0.037  -0.000   0.184  -0.000   0.000
  0.015  -0.003   0.002  -0.992  -0.007  -0.010   0.002  -0.001   1.345   0.004   0.004  -0.000  -0.000  -0.000   0.259   0.000
  0.002   0.005   0.006  -0.007  -0.720  -0.001  -0.003  -0.005   0.004   1.481   0.012  -0.002   0.001  -0.002   0.000   0.000
  0.009  -0.025   0.631  -0.009  -0.013  -0.004   0.010  -0.381   0.004   0.012   1.773  -0.271   0.002   0.216  -0.000   0.000
 -0.002   0.006  -0.169   0.002  -0.001   0.000  -0.000   0.037  -0.000  -0.002  -0.271   0.048   0.000  -0.042  -0.000  -0.000
 -0.000  -0.220   0.001   0.001  -0.002   0.000   0.257  -0.000  -0.000   0.001   0.002   0.000   0.168  -0.001  -0.000  -0.010
 -0.001   0.004  -0.111   0.000   0.004   0.000  -0.002   0.184  -0.000  -0.002   0.216  -0.042  -0.001   0.109  -0.000  -0.000
  0.006  -0.001   0.001  -0.224  -0.000  -0.003   0.000  -0.000   0.259   0.000  -0.000  -0.000  -0.000  -0.000   0.167   0.000
  0.000  -0.008   0.000  -0.000   0.001  -0.000  -0.021   0.000   0.000   0.000   0.000  -0.000  -0.010  -0.000   0.000   0.001
 -0.000  -0.001  -0.024  -0.000   0.000   0.000  -0.000  -0.013  -0.000   0.000  -0.028   0.006  -0.000  -0.009  -0.000   0.000
 -0.001   0.000  -0.000  -0.008  -0.000  -0.000   0.000  -0.000  -0.021   0.000   0.000  -0.000   0.000  -0.000  -0.010  -0.000


------------------------ aborting loop because EDIFF is reached ----------------------------------------


    CHARGE:  cpu time      0.0423: real time      0.0425
    FORLOC:  cpu time      0.0054: real time      0.0054
    FORNL :  cpu time      0.1935: real time      0.1943
    STRESS:  cpu time      0.5711: real time      0.5735
    FORCOR:  cpu time      0.0386: real time      0.0388
    FORHAR:  cpu time      0.0114: real time      0.0114
    MIXING:  cpu time      0.0013: real time      0.0013
    OFIELD:  cpu time      0.0000: real time      0.0000

  FORCE on cell =-STRESS in cart. coord.  units (eV):
  Direction    XX          YY          ZZ          XY          YZ          ZX
  --------------------------------------------------------------------------------------
  Alpha Z   628.75265   628.75265   628.75265
  Ewald   94764.08320 94646.57310************     6.59876    -2.32452   -40.31662
  Hartree102585.48717102531.37616-99392.69290     3.11751     4.84011   -16.38169
  E(xc)   -1906.53563 -1907.23831 -1916.68988     0.01417    -0.11985    -0.17251
  Local  ************************207525.94090    -9.07022    -5.32072    52.61401
  n-local  -123.55680  -127.03169  -136.49061     0.49408    -1.44617    -3.18682
  augment  2640.64422  2645.20740  2684.47192    -0.39417     1.37942     2.53249
  Kinetic  4971.38127  4983.85834  5068.26422    -0.42450     3.52216     3.39116
  Fock        0.00000     0.00000     0.00000     0.00000     0.00000     0.00000
  -------------------------------------------------------------------------------------
  Total     -24.26604   -24.63758    -7.88851     0.33563     0.53043    -1.51998
  in kB     -27.95331   -28.38131    -9.08718     0.38663     0.61103    -1.75095
  external pressure =      -21.81 kB  Pullay stress =        0.00 kB


 VOLUME and BASIS-vectors are now :
 -----------------------------------------------------------------------------
  energy-cutoff  :      400.00
  volume of cell :     1390.84
      direct lattice vectors                 reciprocal lattice vectors
     8.358002154  0.000000000  0.000000000     0.119645817  0.000000000  0.000000000
     0.000000000  8.358002154  0.000000000     0.000000000  0.119645817  0.000000000
     0.000000000  0.000000000 19.910000000     0.000000000  0.000000000  0.050226017

  length of vectors
     8.358002154  8.358002154 19.910000000     0.119645817  0.119645817  0.050226017


 FORCES acting on ions
    electron-ion (+dipol)            ewald-force                    non-local-force                 convergence-correction
 -----------------------------------------------------------------------------------------------
   0.210E+00 0.132E+01 0.209E+04   -.143E+00 -.111E+01 -.208E+04   0.105E-02 -.110E+00 -.314E+01   -.672E-01 -.112E+00 -.620E-01
   -.798E+00 0.120E+01 0.209E+04   0.843E+00 -.115E+01 -.208E+04   -.511E-01 0.360E-01 -.313E+01   -.284E-01 -.804E-01 -.170E+00
   0.575E+00 0.122E+01 0.209E+04   -.699E+00 -.112E+01 -.208E+04   0.478E-01 0.589E-01 -.322E+01   0.952E-01 -.130E+00 -.640E-01
   0.992E-01 -.596E+00 0.209E+04   -.697E-01 0.474E+00 -.208E+04   0.242E-01 -.178E-01 -.308E+01   -.428E-01 0.127E+00 -.549E-01
   -.102E+01 -.749E+00 0.209E+04   0.909E+00 0.622E+00 -.208E+04   0.131E+00 0.128E-02 -.312E+01   -.433E-02 0.143E+00 -.156E+00
   0.914E+00 -.654E+00 0.209E+04   -.904E+00 0.487E+00 -.208E+04   -.810E-01 -.757E-02 -.309E+01   0.474E-01 0.167E+00 -.346E-01
   0.131E+00 -.720E+00 0.209E+04   -.316E-01 0.647E+00 -.208E+04   0.192E-01 0.137E+00 -.315E+01   -.912E-01 -.152E-01 0.342E-01
   -.872E+00 -.431E+00 0.208E+04   0.898E+00 0.527E+00 -.208E+04   -.547E-01 -.552E-01 -.316E+01   0.126E-01 -.630E-01 -.755E-01
   0.780E+00 -.615E+00 0.208E+04   -.906E+00 0.660E+00 -.208E+04   0.486E-01 -.282E-01 -.320E+01   0.784E-01 -.372E-01 0.440E-01
   0.288E+01 0.357E+01 0.740E+03   -.292E+01 -.334E+01 -.740E+03   0.396E-01 -.109E+00 0.186E+00   -.290E-01 -.186E+00 -.461E-02
   -.500E+01 0.414E+01 0.743E+03   0.514E+01 -.396E+01 -.743E+03   0.790E-01 -.373E-01 0.116E+00   -.153E+00 -.160E+00 -.112E+00
   0.117E+01 0.564E+01 0.736E+03   -.134E+01 -.541E+01 -.736E+03   -.573E-01 -.892E-01 0.391E+00   0.183E+00 -.201E+00 -.465E-01
   0.213E+01 0.262E+01 0.746E+03   -.219E+01 -.274E+01 -.746E+03   0.114E+00 0.108E+00 0.110E+00   -.120E-01 0.213E-01 -.187E-02
   -.486E+01 0.180E+01 0.749E+03   0.500E+01 -.183E+01 -.749E+03   0.335E-01 0.161E-01 0.147E-02   -.136E+00 0.289E-01 -.139E+00
   0.772E+00 0.126E+00 0.743E+03   -.882E+00 -.264E+00 -.743E+03   -.637E-01 0.825E-01 0.974E-01   0.148E+00 0.545E-01 -.788E-01
   0.128E+01 -.506E+01 0.744E+03   -.127E+01 0.501E+01 -.744E+03   0.143E+00 -.874E-01 0.129E+00   -.536E-01 0.165E+00 -.203E-01
   -.661E+01 -.587E+01 0.747E+03   0.671E+01 0.575E+01 -.747E+03   0.982E-01 0.264E-01 -.482E-01   -.121E+00 0.131E+00 -.149E+00
   0.160E+01 -.512E+01 0.741E+03   -.171E+01 0.502E+01 -.741E+03   -.374E-01 -.263E-01 0.502E-01   0.175E+00 0.147E+00 -.100E+00
   0.436E+01 0.871E+01 -.628E+03   -.416E+01 -.867E+01 0.628E+03   0.176E-01 0.588E-01 0.763E-01   -.220E+00 -.155E+00 0.925E-01
   -.743E+01 0.920E+01 -.621E+03   0.724E+01 -.901E+01 0.621E+03   0.156E+00 -.487E-01 0.119E+00   0.484E-01 -.168E+00 0.144E+00
   0.177E+01 0.788E+01 -.635E+03   -.174E+01 -.750E+01 0.635E+03   -.103E+00 -.193E+00 -.402E+00   0.170E+00 -.177E+00 0.131E+00
   0.421E+00 -.705E+01 -.603E+03   -.183E+00 0.691E+01 0.602E+03   -.385E-01 0.273E-01 0.128E+01   -.221E+00 0.115E+00 -.703E-02
   -.515E+01 -.348E+01 -.638E+03   0.522E+01 0.344E+01 0.637E+03   -.400E-01 -.147E+00 0.678E+00   0.561E-01 0.131E+00 0.389E-01
   0.404E+01 -.250E+01 -.627E+03   -.439E+01 0.237E+01 0.627E+03   0.137E+00 -.592E-01 0.894E-01   0.160E+00 0.141E+00 0.158E-01
   0.410E+00 -.130E+01 -.635E+03   -.127E+00 0.136E+01 0.635E+03   -.831E-01 -.898E-01 0.113E+00   -.227E+00 0.425E-01 -.109E-01
   -.506E+01 -.421E+01 -.659E+03   0.489E+01 0.411E+01 0.659E+03   0.762E-01 0.641E-01 -.272E+00   0.796E-01 0.442E-01 0.507E-01
   0.537E+01 -.511E+01 -.643E+03   -.540E+01 0.475E+01 0.644E+03   -.166E+00 0.315E+00 -.513E+00   0.148E+00 0.415E-01 0.949E-02
   0.114E+02 -.177E+01 -.200E+04   -.114E+02 0.173E+01 0.199E+04   0.199E+00 0.155E+00 0.326E+01   -.654E-01 -.324E-01 0.514E-01
   0.544E+01 0.107E+02 -.199E+04   -.535E+01 -.108E+02 0.199E+04   -.253E-02 0.272E-01 0.309E+01   -.895E-01 -.425E-01 0.171E+00
   -.153E+02 0.908E+01 -.200E+04   0.154E+02 -.910E+01 0.200E+04   -.233E+00 0.507E-01 0.317E+01   0.156E+00 -.539E-01 0.116E+00
   0.849E+02 0.765E+02 -.194E+04   -.842E+02 -.759E+02 0.194E+04   -.596E+00 -.429E+00 0.146E+01   -.768E-01 -.110E+00 0.743E-01
   -.372E+02 0.711E+02 -.194E+04   0.378E+02 -.714E+02 0.194E+04   -.534E+00 0.286E+00 -.123E+00   -.713E-01 -.105E+00 0.191E+00
   -.533E+02 0.354E+01 -.197E+04   0.514E+02 -.478E+01 0.197E+04   0.193E+01 0.134E+01 0.919E+00   0.154E+00 -.860E-01 0.178E+00
   0.851E+02 -.806E+02 -.193E+04   -.843E+02 0.799E+02 0.193E+04   -.852E+00 0.523E+00 0.119E+01   -.965E-01 0.142E+00 0.113E-01
   -.348E+02 -.995E+02 -.200E+04   0.360E+02 0.984E+02 0.200E+04   -.116E+01 0.934E+00 -.352E+00   -.390E-01 0.135E+00 0.140E+00
   -.586E+02 -.309E+02 -.199E+04   0.561E+02 0.303E+02 0.199E+04   0.242E+01 0.570E+00 0.401E+00   0.145E+00 0.133E+00 0.105E+00
   -.842E+00 0.194E+02 -.255E+03   0.363E+00 -.205E+02 0.256E+03   0.330E+00 0.944E+00 -.126E+01   0.616E-02 -.142E-01 0.257E-01
   -.589E+01 0.750E+01 -.261E+03   0.569E+01 -.789E+01 0.263E+03   0.183E+00 0.647E+00 -.150E+01   0.892E-02 0.687E-02 0.253E-01
   0.247E+02 0.585E+01 -.147E+04   -.253E+02 -.604E+01 0.148E+04   0.310E+00 0.168E+00 -.801E+01   -.643E-01 0.721E-03 0.101E+00
 -----------------------------------------------------------------------------------------------
   -.235E+01 -.503E+01 0.234E+02   0.249E-13 0.107E-12 0.682E-12   0.239E+01 0.504E+01 -.239E+02   -.376E-01 -.109E-01 0.462E+00


 POSITION                                       TOTAL-FORCE (eV/Angst)
 -----------------------------------------------------------------------------------
      1.39300      1.39300      0.00000         0.000579     -0.011387      0.099019
      4.17900      1.39300      0.00000        -0.035000      0.006998      0.089173
      6.96500      1.39300      0.00000         0.018651      0.020720      0.058739
      1.39300      4.17900      0.00000         0.010975     -0.013268      0.057440
      4.17900      4.17900      0.00000         0.015496      0.017514      0.108897
      6.96500      4.17900      0.00000        -0.023460     -0.007816      0.139353
      1.39300      6.96500      0.00000         0.027161      0.048470      0.115267
      4.17900      6.96500      0.00000        -0.016378     -0.022245      0.076449
      6.96500      6.96500      0.00000         0.001228     -0.020618      0.067670
      0.00000      0.00000      1.97000        -0.031150     -0.057289      0.001010
      2.78600      0.00000      1.97000         0.070780     -0.014481      0.071413
      5.57200      0.00000      1.97000        -0.049993     -0.061174     -0.048442
      0.00000      2.78600      1.97000         0.035765      0.012065      0.024448
      2.78600      2.78600      1.97000         0.036191      0.007950      0.015095
      5.57200      2.78600      1.97000        -0.026148     -0.001317      0.083626
      0.00000      5.57200      1.97000         0.093385      0.028327      0.048452
      2.78600      5.57200      1.97000         0.076148      0.036543     -0.017645
      5.57200      5.57200      1.97000         0.029982      0.018979      0.072288
      1.39109      1.39356      3.96582         0.001106     -0.055527     -0.117309
      4.16366      1.40247      3.96272         0.014844     -0.031248     -0.007424
      6.96084      1.38692      3.96860         0.093017      0.007653     -0.027489
      1.45267      4.17817      3.94644        -0.020227     -0.004430      0.040031
      4.19421      4.20143      3.98785         0.082073     -0.050662     -0.045942
      6.99799      4.17326      3.95460        -0.051497     -0.051551      0.087312
      1.43548      6.95639      3.96681        -0.027371      0.009729      0.013418
      4.18277      6.93985      4.01397        -0.016098      0.005103     -0.038086
      6.97981      6.93614      3.97966        -0.048506      0.004672      0.060630
      8.33143      8.32470      5.92294         0.047911      0.078542      0.008611
      2.77166      0.01905      5.94544        -0.005727     -0.110983     -0.051005
      5.56191      8.34693      5.93436         0.061867     -0.019995      0.020363
      0.03956      2.75015      5.97916        -0.032218      0.079889     -0.033805
      2.83676      2.75928      6.05796         0.030457     -0.108928     -0.177865
      5.60641      2.76568      5.94585         0.205566      0.013754     -0.097099
      0.11075      5.57310      5.97380        -0.154675      0.021290     -0.068293
      2.92001      5.60044      6.22007        -0.021448     -0.004904     -0.283088
      5.64557      5.53417      6.01144         0.097597      0.087702     -0.047795
      4.33311      2.12071      6.80645        -0.142495     -0.110934      0.062962
      4.40975      5.14493      7.11232        -0.011625      0.267611     -0.319317
      1.42281      4.15445      7.22263        -0.336764     -0.014754     -0.041061
 -----------------------------------------------------------------------------------
    total drift:                               -0.003208     -0.002989      0.000732


--------------------------------------------------------------------------------------------------------



  FREE ENERGIE OF THE ION-ELECTRON SYSTEM (eV)
  ---------------------------------------------------
  free  energy   TOTEN  =      -188.64135402 eV

  energy  without entropy=     -188.52621200  energy(sigma->0) =     -188.60297335



--------------------------------------------------------------------------------------------------------


    POTLOK:  cpu time      0.0441: real time      0.0443


--------------------------------------------------------------------------------------------------------


     LOOP+:  cpu time     22.5728: real time     22.6946
 vacuum level on the upper side and lower side of the slab         5.332         5.227
    4ORBIT:  cpu time      0.0000: real time      0.0000

 total amount of memory used by VASP MPI-rank0    49453. kBytes
=======================================================================

   base      :      30000. kBytes
   nonlr-proj:       4895. kBytes
   fftplans  :       3716. kBytes
   grid      :       6996. kBytes
   one-center:         31. kBytes
   wavefun   :       3815. kBytes

  
  
 General timing and accounting informations for this job:
 ========================================================
  
                  Total CPU time used (sec):       23.803
                            User time (sec):       22.719
                          System time (sec):        1.084
                         Elapsed time (sec):       24.731
  
                   Maximum memory used (kb):      333064.
                   Average memory used (kb):          N/A
  
                          Minor page faults:        87961
                          Major page faults:           66
                 Voluntary context switches:         1876
