 running   48 mpi-ranks, with    1 threads/rank, on    1 nodes
 distrk:  each k-point on   48 cores,    1 groups
 distr:  one band on   24 cores,    2 groups
 vasp.6.4.3 19Mar24 (build Oct  2 2024 09:01:45) complex                         
 POSCAR found type information on POSCAR PdH S 
 POSCAR found :  3 types and      39 ions
 scaLAPACK will be used
 LDA part: xc-table for (Slater+PW92), standard interpolation
 POSCAR, INCAR and KPOINTS ok, starting setup
 FFT: planning ... GRIDC
 FFT: planning ... GRID_SOFT
 FFT: planning ... GRID
 WAVECAR not read
 WARNING: random wavefunctions but no delay for mixing, default for NELMDL
 entering main loop
       N       E                     dE             d eps       ncg     rms          rms(c)
DAV:   1     0.211653625163E+04    0.21165E+04   -0.14733E+05   880   0.119E+03
DAV:   2    -0.639512336793E+02   -0.21805E+04   -0.20429E+04   992   0.283E+02
DAV:   3    -0.192516942529E+03   -0.12857E+03   -0.11361E+03  1000   0.609E+01
DAV:   4    -0.197552552170E+03   -0.50356E+01   -0.49105E+01  1016   0.120E+01
DAV:   5    -0.197735874555E+03   -0.18332E+00   -0.18302E+00  1056   0.242E+00    0.378E+01
RMM:   6    -0.194180945205E+03    0.35549E+01   -0.29436E+01   919   0.127E+01    0.281E+01
RMM:   7    -0.265422987443E+03   -0.71242E+02   -0.45010E+01  1043   0.108E+01    0.588E+01
RMM:   8    -0.214196445370E+03    0.51227E+02   -0.38437E+01   969   0.111E+01    0.406E+01
RMM:   9    -0.194283584099E+03    0.19913E+02   -0.17995E+01   938   0.904E+00    0.193E+01
RMM:  10    -0.190192640424E+03    0.40909E+01   -0.94163E+00   930   0.626E+00    0.126E+01
RMM:  11    -0.190141237549E+03    0.51403E-01   -0.38211E+00   933   0.385E+00    0.122E+01
RMM:  12    -0.189139055944E+03    0.10022E+01   -0.20183E+00   932   0.292E+00    0.730E+00
RMM:  13    -0.188902971488E+03    0.23608E+00   -0.81756E-01   922   0.185E+00    0.488E+00
RMM:  14    -0.188806865017E+03    0.96106E-01   -0.34460E-01   926   0.127E+00    0.370E+00
RMM:  15    -0.188724970181E+03    0.81895E-01   -0.15562E-01   924   0.839E-01    0.254E+00
RMM:  16    -0.188705930369E+03    0.19040E-01   -0.56691E-02   931   0.494E-01    0.250E+00
RMM:  17    -0.188674308297E+03    0.31622E-01   -0.24813E-02   936   0.318E-01    0.170E+00
RMM:  18    -0.188669328174E+03    0.49801E-02   -0.37232E-02  1020   0.346E-01    0.173E+00
RMM:  19    -0.188653502552E+03    0.15826E-01   -0.16614E-02   953   0.263E-01    0.106E+00
RMM:  20    -0.188645938107E+03    0.75644E-02   -0.50800E-03   930   0.139E-01    0.580E-01
RMM:  21    -0.188643544292E+03    0.23938E-02   -0.25972E-03   944   0.101E-01    0.334E-01
RMM:  22    -0.188644330575E+03   -0.78628E-03   -0.24460E-03   980   0.926E-02    0.517E-01
RMM:  23    -0.188642478620E+03    0.18520E-02   -0.13741E-03   950   0.741E-02    0.294E-01
RMM:  24    -0.188641499758E+03    0.97886E-03   -0.93798E-04   944   0.547E-02    0.158E-01
RMM:  25    -0.188641322408E+03    0.17735E-03   -0.53315E-04   762   0.407E-02    0.104E-01
RMM:  26    -0.188641354016E+03   -0.31608E-04   -0.28350E-04   644   0.308E-02
   1 F= -.18864135E+03 E0= -.18860297E+03  d E =-.115142E+00
