<?xml version="1.0" encoding="ISO-8859-1"?>
<modeling>
 <generator>
  <i name="program" type="string">vasp </i>
  <i name="version" type="string">6.4.3  </i>
  <i name="subversion" type="string">19Mar24 (build Oct  2 2024 09:01:45) complex                          parallel </i>
  <i name="platform" type="string">LinuxGNU </i>
  <i name="date" type="string">2025 02 24 </i>
  <i name="time" type="string">13:00:46 </i>
 </generator>
 <incar>
  <i type="string" name="PREC">Accurate</i>
  <i type="string" name="ALGO">Fast</i>
  <i type="int" name="ICHARG">     2</i>
  <i type="int" name="IBRION">    -1</i>
  <i name="EDIFF">      0.00010000</i>
  <i name="EDIFFG">     -0.03000000</i>
  <i type="int" name="ISYM">     0</i>
  <i name="ENCUT">    400.00000000</i>
  <i type="string" name="LREAL">Auto</i>
  <i type="int" name="ISMEAR">     1</i>
  <i name="SIGMA">      0.10000000</i>
  <i type="logical" name="LWAVE"> F  </i>
  <i type="logical" name="LCHARG"> F  </i>
  <i type="string" name="GGA">PE</i>
  <i type="logical" name="LDIPOL"> T  </i>
  <i type="int" name="IDIPOL">     3</i>
 </incar>
 <primitive_cell>
  <structure name="primitive_cell" >
   <crystal>
    <varray name="basis" >
     <v>       8.35800215       0.00000000       0.00000000 </v>
     <v>       0.00000000       8.35800215       0.00000000 </v>
     <v>       0.00000000       0.00000000      19.91000000 </v>
    </varray>
    <i name="volume">   1390.83694200 </i>
    <varray name="rec_basis" >
     <v>       0.11964582       0.00000000       0.00000000 </v>
     <v>       0.00000000       0.11964582       0.00000000 </v>
     <v>       0.00000000       0.00000000       0.05022602 </v>
    </varray>
   </crystal>
   <varray name="positions" >
    <v>       0.16666667       0.16666667       0.00000000 </v>
    <v>       0.50000000       0.16666667       0.00000000 </v>
    <v>       0.83333333       0.16666667       0.00000000 </v>
    <v>       0.16666667       0.50000000       0.00000000 </v>
    <v>       0.50000000       0.50000000       0.00000000 </v>
    <v>       0.83333333       0.50000000       0.00000000 </v>
    <v>       0.16666667       0.83333333       0.00000000 </v>
    <v>       0.50000000       0.83333333       0.00000000 </v>
    <v>       0.83333333       0.83333333       0.00000000 </v>
    <v>       0.00000000       0.00000000       0.09894525 </v>
    <v>       0.33333333       0.00000000       0.09894525 </v>
    <v>       0.66666667       0.00000000       0.09894525 </v>
    <v>       0.00000000       0.33333333       0.09894525 </v>
    <v>       0.33333333       0.33333333       0.09894525 </v>
    <v>       0.66666667       0.33333333       0.09894525 </v>
    <v>       0.00000000       0.66666667       0.09894525 </v>
    <v>       0.33333333       0.66666667       0.09894525 </v>
    <v>       0.66666667       0.66666667       0.09894525 </v>
    <v>       0.16643790       0.16673390       0.19918736 </v>
    <v>       0.49816454       0.16779938       0.19903144 </v>
    <v>       0.83283551       0.16593924       0.19932721 </v>
    <v>       0.17380588       0.49990019       0.19821371 </v>
    <v>       0.50181913       0.50268367       0.20029396 </v>
    <v>       0.83728012       0.49931361       0.19862365 </v>
    <v>       0.17174893       0.83230322       0.19923721 </v>
    <v>       0.50045116       0.83032345       0.20160570 </v>
    <v>       0.83510487       0.82988064       0.19988231 </v>
    <v>       0.99682074       0.99601555       0.29748546 </v>
    <v>       0.33161782       0.00227981       0.29861557 </v>
    <v>       0.66545887       0.99867545       0.29805905 </v>
    <v>       0.00473286       0.32904421       0.30030926 </v>
    <v>       0.33940620       0.33013674       0.30426744 </v>
    <v>       0.67078361       0.33090148       0.29863635 </v>
    <v>       0.01325126       0.66679823       0.30004018 </v>
    <v>       0.34936754       0.67006868       0.31240951 </v>
    <v>       0.67546842       0.66213973       0.30193076 </v>
    <v>       0.51843794       0.25373461       0.34186080 </v>
    <v>       0.52760772       0.61556919       0.35722355 </v>
    <v>       0.17023324       0.49706218       0.36276412 </v>
   </varray>
  </structure>
  <varray name="primitive_index" >
   <v type="int" >        1 </v>
   <v type="int" >        2 </v>
   <v type="int" >        3 </v>
   <v type="int" >        4 </v>
   <v type="int" >        5 </v>
   <v type="int" >        6 </v>
   <v type="int" >        7 </v>
   <v type="int" >        8 </v>
   <v type="int" >        9 </v>
   <v type="int" >       10 </v>
   <v type="int" >       11 </v>
   <v type="int" >       12 </v>
   <v type="int" >       13 </v>
   <v type="int" >       14 </v>
   <v type="int" >       15 </v>
   <v type="int" >       16 </v>
   <v type="int" >       17 </v>
   <v type="int" >       18 </v>
   <v type="int" >       19 </v>
   <v type="int" >       20 </v>
   <v type="int" >       21 </v>
   <v type="int" >       22 </v>
   <v type="int" >       23 </v>
   <v type="int" >       24 </v>
   <v type="int" >       25 </v>
   <v type="int" >       26 </v>
   <v type="int" >       27 </v>
   <v type="int" >       28 </v>
   <v type="int" >       29 </v>
   <v type="int" >       30 </v>
   <v type="int" >       31 </v>
   <v type="int" >       32 </v>
   <v type="int" >       33 </v>
   <v type="int" >       34 </v>
   <v type="int" >       35 </v>
   <v type="int" >       36 </v>
   <v type="int" >       37 </v>
   <v type="int" >       38 </v>
   <v type="int" >       39 </v>
  </varray>
 </primitive_cell>
 <kpoints>
  <generation param="Monkhorst-Pack">
   <v type="int" name="divisions">       2        2        1 </v>
   <v name="usershift">      0.00000000       0.00000000       0.00000000 </v>
   <v name="genvec1">      0.50000000       0.00000000       0.00000000 </v>
   <v name="genvec2">      0.00000000       0.50000000       0.00000000 </v>
   <v name="genvec3">      0.00000000       0.00000000       1.00000000 </v>
   <v name="shift">      0.50000000       0.50000000       0.00000000 </v>
  </generation>
  <varray name="kpointlist" >
   <v>       0.25000000       0.25000000       0.00000000 </v>
   <v>      -0.25000000       0.25000000       0.00000000 </v>
  </varray>
  <varray name="weights" >
   <v>       0.50000000 </v>
   <v>       0.50000000 </v>
  </varray>
 </kpoints>
 <parameters>
  <separator name="general" >
   <i type="string" name="SYSTEM">unknown system</i>
   <i type="logical" name="LCOMPAT"> F  </i>
  </separator>
  <separator name="electronic" >
   <i type="string" name="PREC">accura</i>
   <i name="ENMAX">    400.00000000</i>
   <i name="ENAUG">    416.23000000</i>
   <i name="EDIFF">      0.00010000</i>
   <i type="int" name="IALGO">    68</i>
   <i type="int" name="IWAVPR">    10</i>
   <i type="int" name="NBANDS">   220</i>
   <i type="int" name="NBANDSLOW">    -1</i>
   <i type="int" name="NBANDSHIGH">    -1</i>
   <i name="NELECT">    368.00000000</i>
   <i type="int" name="TURBO">     0</i>
   <i type="int" name="IRESTART">     0</i>
   <i type="int" name="NREBOOT">     0</i>
   <i type="int" name="NMIN">     0</i>
   <i name="EREF">      0.00000000</i>
   <separator name="electronic smearing" >
    <i type="int" name="ISMEAR">     1</i>
    <i name="SIGMA">      0.10000000</i>
    <i name="KSPACING">      0.50000000</i>
    <i type="logical" name="KGAMMA"> T  </i>
    <i type="logical" name="KBLOWUP"> T  </i>
   </separator>
   <separator name="electronic projectors" >
    <i type="logical" name="LREAL"> T  </i>
    <v name="ROPT">     -0.00025000     -0.00025000     -0.00025000</v>
    <i type="int" name="LMAXPAW">  -100</i>
    <i type="int" name="LMAXMIX">     2</i>
    <i type="logical" name="NLSPLINE"> F  </i>
   </separator>
   <separator name="electronic startup" >
    <i type="int" name="ISTART">     0</i>
    <i type="int" name="ICHARG">     2</i>
    <i type="int" name="INIWAV">     1</i>
   </separator>
   <separator name="electronic spin" >
    <i type="int" name="ISPIN">     1</i>
    <i type="logical" name="LNONCOLLINEAR"> F  </i>
    <v name="MAGMOM">      1.00000000      1.00000000      1.00000000      1.00000000      1.00000000      1.00000000      1.00000000      1.00000000      1.00000000      1.00000000      1.00000000      1.00000000      1.00000000      1.00000000      1.00000000      1.00000000      1.00000000      1.00000000      1.00000000      1.00000000
      1.00000000      1.00000000      1.00000000      1.00000000      1.00000000      1.00000000      1.00000000      1.00000000      1.00000000      1.00000000      1.00000000      1.00000000      1.00000000      1.00000000      1.00000000      1.00000000      1.00000000      1.00000000      1.00000000</v>
    <i name="NUPDOWN">     -1.00000000</i>
    <i type="logical" name="LSORBIT"> F  </i>
    <v name="SAXIS">      0.00000000      0.00000000      1.00000000</v>
    <i type="logical" name="LSPIRAL"> F  </i>
    <v name="QSPIRAL">      0.00000000      0.00000000      0.00000000</v>
    <i type="logical" name="LZEROZ"> F  </i>
   </separator>
   <separator name="electronic exchange-correlation" >
    <i type="logical" name="LASPH"> F  </i>
   </separator>
   <separator name="electronic convergence" >
    <i type="int" name="NELM">    60</i>
    <i type="int" name="NELMDL">     0</i>
    <i type="int" name="NELMIN">     2</i>
    <i name="ENINI">    400.00000000</i>
    <separator name="electronic convergence detail" >
     <i type="logical" name="LDIAG"> T  </i>
     <i type="logical" name="LSUBROT"> F  </i>
     <i name="WEIMIN">      0.00000000</i>
     <i name="EBREAK">      0.00000011</i>
     <i name="DEPER">      0.30000000</i>
     <i type="int" name="NRMM">     4</i>
     <i name="TIME">      0.40000000</i>
    </separator>
   </separator>
   <separator name="electronic mixer" >
    <i name="AMIX">      0.40000000</i>
    <i name="BMIX">      1.00000000</i>
    <i name="AMIN">      0.10000000</i>
    <i name="AMIX_MAG">      1.60000000</i>
    <i name="BMIX_MAG">      1.00000000</i>
    <separator name="electronic mixer details" >
     <i type="int" name="IMIX">     4</i>
     <i type="logical" name="MIXFIRST"> F  </i>
     <i type="int" name="MAXMIX">   -45</i>
     <i name="WC">    100.00000000</i>
     <i type="int" name="INIMIX">     1</i>
     <i type="int" name="MIXPRE">     1</i>
     <i type="int" name="MREMOVE">     5</i>
    </separator>
   </separator>
   <separator name="electronic dipolcorrection" >
    <i type="logical" name="LDIPOL"> T  </i>
    <i type="logical" name="LMONO"> F  </i>
    <i type="int" name="IDIPOL">     3</i>
    <i name="EPSILON">      1.00000000</i>
    <v name="DIPOL">   -100.00000000   -100.00000000   -100.00000000</v>
    <i name="EFIELD">      0.00000000</i>
    <i type="logical" name="LVACPOTAV"> F  </i>
   </separator>
  </separator>
  <separator name="grids" >
   <i type="int" name="NGX">    56</i>
   <i type="int" name="NGY">    56</i>
   <i type="int" name="NGZ">   140</i>
   <i type="int" name="NGXF">   112</i>
   <i type="int" name="NGYF">   112</i>
   <i type="int" name="NGZF">   280</i>
   <i type="logical" name="ADDGRID"> F  </i>
  </separator>
  <separator name="ionic" >
   <i type="int" name="NSW">     0</i>
   <i type="int" name="IBRION">    -1</i>
   <i type="int" name="MDALGO">     0</i>
   <i type="int" name="ISIF">     2</i>
   <i name="PSTRESS">      0.00000000</i>
   <i name="EDIFFG">     -0.03000000</i>
   <i type="int" name="NFREE">     0</i>
   <i name="POTIM">      0.50000000</i>
   <i name="SMASS">     -3.00000000</i>
   <i name="SCALEE">      1.00000000</i>
  </separator>
  <separator name="ionic md" >
   <i name="TEBEG">      0.00010000</i>
   <i name="TEEND">      0.00010000</i>
   <i type="int" name="NBLOCK">     1</i>
   <i type="int" name="KBLOCK">     1</i>
   <i type="int" name="NPACO">   256</i>
   <i name="APACO">     10.00000000</i>
  </separator>
  <separator name="symmetry" >
   <i type="int" name="ISYM">     0</i>
   <i name="SYMPREC">      0.00001000</i>
  </separator>
  <separator name="dos" >
   <i type="int" name="LORBIT">     0</i>
   <v name="RWIGS">     -1.00000000     -1.00000000     -1.00000000</v>
   <i type="int" name="NEDOS">   301</i>
   <i name="EMIN">     10.00000000</i>
   <i name="EMAX">    -10.00000000</i>
   <i name="EFERMI">      0.00000000</i>
  </separator>
  <separator name="writing" >
   <i type="int" name="NWRITE">     2</i>
   <i type="logical" name="LWAVE"> F  </i>
   <i type="logical" name="LDOWNSAMPLE"> F  </i>
   <i type="logical" name="LCHARG"> F  </i>
   <i type="logical" name="LPARD"> F  </i>
   <i type="logical" name="LVTOT"> F  </i>
   <i type="logical" name="LVHAR"> F  </i>
   <i type="logical" name="LELF"> F  </i>
   <i type="logical" name="LOPTICS"> F  </i>
   <v name="STM">      0.00000000      0.00000000      0.00000000      0.00000000      0.00000000      0.00000000      0.00000000</v>
  </separator>
  <separator name="performance" >
   <i type="int" name="NPAR">     2</i>
   <i type="int" name="NSIM">     4</i>
   <i type="int" name="NBLK">    -1</i>
   <i type="logical" name="LPLANE"> T  </i>
   <i type="logical" name="LSCALAPACK"> T  </i>
   <i type="logical" name="LSCAAWARE"> F  </i>
   <i type="logical" name="LSCALU"> F  </i>
   <i type="logical" name="LASYNC"> F  </i>
   <i type="logical" name="LORBITALREAL"> F  </i>
  </separator>
  <separator name="miscellaneous" >
   <i type="int" name="IDIOT">     3</i>
   <i type="int" name="PHON_NSTRUCT">    -1</i>
   <i type="logical" name="LMUSIC"> F  </i>
   <v name="POMASS">    106.42000000      1.00000000     32.06600000</v>
   <v name="DARWINR">      0.00000000      0.00000000      0.00000000</v>
   <v name="DARWINV">      1.00000000      1.00000000      1.00000000</v>
   <i type="logical" name="LCORR"> T  </i>
  </separator>
  <i type="logical" name="GGA_COMPAT"> T  </i>
  <i type="logical" name="LBERRY"> F  </i>
  <i type="int" name="ICORELEVEL">     0</i>
  <i type="logical" name="LDAU"> F  </i>
  <i type="int" name="I_CONSTRAINED_M">     0</i>
  <separator name="electronic exchange-correlation" >
   <i type="string" name="GGA    ">PE</i>
   <i type="string" name="XC_C">1</i>
   <i type="int" name="VOSKOWN">     0</i>
   <i type="logical" name="LHFCALC"> F  </i>
   <i type="string" name="PRECFOCK"></i>
   <i type="logical" name="LSYMGRAD"> F  </i>
   <i type="logical" name="LHFONE"> F  </i>
   <i type="logical" name="LRHFCALC"> F  </i>
   <i type="logical" name="LTHOMAS"> F  </i>
   <i type="logical" name="LMODELHF"> F  </i>
   <i type="logical" name="LFOCKACE"> F  </i>
   <i name="ENCUT4O">     -1.00000000</i>
   <i type="int" name="EXXOEP">     0</i>
   <i type="int" name="FOURORBIT">     0</i>
   <i name="AEXX">      0.00000000</i>
   <i name="HFALPHA">      0.00000000</i>
   <i name="MCALPHA">      0.00000000</i>
   <i name="ALDAX">      1.00000000</i>
   <i name="AGGAX">      1.00000000</i>
   <i name="AMGGAX">      1.00000000</i>
   <i name="ALDAC">      1.00000000</i>
   <i name="AGGAC">      1.00000000</i>
   <i name="AMGGAC">      1.00000000</i>
   <i type="int" name="NKREDX">     1</i>
   <i type="int" name="NKREDY">     1</i>
   <i type="int" name="NKREDZ">     1</i>
   <i type="logical" name="SHIFTRED"> F  </i>
   <i type="logical" name="ODDONLY"> F  </i>
   <i type="logical" name="EVENONLY"> F  </i>
   <i type="int" name="LMAXFOCK">     0</i>
   <i type="int" name="NMAXFOCKAE">     0</i>
   <i type="logical" name="LFOCKAEDFT"> F  </i>
   <i name="HFSCREEN">      0.00000000</i>
   <i name="HFSCREENC">      0.00000000</i>
   <i type="int" name="NBANDSGWLOW">     0</i>
  </separator>
  <separator name="vdW DFT" >
   <i type="logical" name="LUSE_VDW"> F  </i>
   <i type="int" name="IVDW_NL">    -1</i>
   <i type="logical" name="LSPIN_VDW"> F  </i>
   <i name="ZAB_VDW">     -0.84910000</i>
   <i name="GAMMA_VDW">      1.39626340</i>
   <i name="ALPHA_VDW">      0.00000000</i>
   <i name="PARAM1">      0.12340000</i>
   <i name="PARAM2">      1.00000000</i>
   <i name="BPARAM">      6.30000000</i>
   <i name="CPARAM">      0.00930000</i>
  </separator>
  <separator name="model GW" >
   <i type="int" name="MODEL_GW">     0</i>
   <i name="MODEL_EPS0">     21.39749142</i>
   <i name="MODEL_ALPHA">      1.00000000</i>
  </separator>
  <separator name="linear response parameters" >
   <i type="logical" name="LEPSILON"> F  </i>
   <i type="logical" name="LRPA"> F  </i>
   <i type="logical" name="LNABLA"> F  </i>
   <i type="logical" name="LVEL"> F  </i>
   <i name="CSHIFT">      0.10000000</i>
   <i name="OMEGAMAX">     -1.00000000</i>
   <i name="DEG_THRESHOLD">      0.00200000</i>
   <i name="RTIME">     -0.10000000</i>
   <i name="WPLASMAI">      0.00000000</i>
   <v name="DFIELD">      0.00000000      0.00000000      0.00000000</v>
   <v name="WPLASMA">      0.00000000      0.00000000      0.00000000      0.00000000      0.00000000      0.00000000      0.00000000      0.00000000      0.00000000</v>
  </separator>
  <separator name="orbital magnetization" >
   <i type="logical" name="NUCIND"> F  </i>
   <v name="MAGPOS">      0.00000000      0.00000000      0.00000000</v>
   <i type="logical" name="LNICSALL"> T  </i>
   <i type="logical" name="ORBITALMAG"> F  </i>
   <i type="logical" name="LMAGBLOCH"> F  </i>
   <i type="logical" name="LCHIMAG"> F  </i>
   <i type="logical" name="LGAUGE"> T  </i>
   <i type="int" name="MAGATOM">     0</i>
   <v name="MAGDIPOL">      0.00000000      0.00000000      0.00000000</v>
   <v name="AVECCONST">      0.00000000      0.00000000      0.00000000</v>
  </separator>
  <separator name="response functions" >
   <i type="logical" name="LALL_IN_ONE"> F  </i>
   <i type="int" name="IALL_IN_ONE">    -1</i>
   <i type="int" name="NBANDS_WAVE">    -1</i>
   <i type="logical" name="LFINITE_TEMPERATURE"> F  </i>
   <i type="logical" name="LADDER"> F  </i>
   <i type="logical" name="LRPAFORCE"> F  </i>
   <i type="logical" name="LFXC"> F  </i>
   <i type="logical" name="LHARTREE"> T  </i>
   <i type="int" name="IBSE">     0</i>
   <v type="int" name="KPOINT">    -1     0     0     0</v>
   <i type="logical" name="LTCTC"> F  </i>
   <i type="logical" name="LTCTE"> F  </i>
   <i type="logical" name="LTETE"> F  </i>
   <i type="logical" name="LTRIPLET"> F  </i>
   <i type="logical" name="LFXCEPS"> F  </i>
   <i type="logical" name="LFXHEG"> F  </i>
   <i type="int" name="NATURALO">     2</i>
   <i type="logical" name="LHOLEGF"> F  </i>
   <i type="logical" name="L2ORDER"> F  </i>
   <i type="logical" name="LDMP1"> F  </i>
   <i type="logical" name="LMP2LT"> F  </i>
   <i type="logical" name="LSMP2LT"> F  </i>
   <i type="logical" name="LGWLF"> F  </i>
   <i name="ENCUTGW">     -1.60000002</i>
   <i name="ENCUTGWSOFT">     -1.60000002</i>
   <i name="ENCUTLF">     -1.00000000</i>
   <i type="logical" name="ESF_SPLINES"> F  </i>
   <i name="ESF_CONV">      0.01000000</i>
   <i type="int" name="ESF_NINTER">    15</i>
   <i type="int" name="LMAXMP2">    -1</i>
   <i name="SCISSOR">      0.00000000</i>
   <i type="int" name="NOMEGA">     0</i>
   <i type="int" name="NOMEGAR">     0</i>
   <i type="int" name="NBANDSGW">    -1</i>
   <i type="int" name="NBANDSO">    -1</i>
   <i type="int" name="NBANDSV">    -1</i>
   <i type="int" name="NELMGW">     1</i>
   <i type="int" name="NELMHF">     1</i>
   <i type="int" name="DIM">     3</i>
   <i type="int" name="IESPILON">     4</i>
   <i type="int" name="ANTIRES">     0</i>
   <i name="OMEGAMAX">    -30.00000000</i>
   <i name="OMEGAMIN">    -30.00000000</i>
   <i name="OMEGATL">   -200.00000000</i>
   <i type="int" name="OMEGAGRID">     0</i>
   <i name="CSHIFT">     -0.10000000</i>
   <i type="logical" name="LSELFENERGY"> F  </i>
   <i type="logical" name="LSPECTRAL"> F  </i>
   <i type="logical" name="LSPECTRALGW"> F  </i>
   <i type="logical" name="LSINGLES"> F  </i>
   <i type="logical" name="LFERMIGW"> F  </i>
   <i type="logical" name="ODDONLYGW"> F  </i>
   <i type="logical" name="EVENONLYGW"> F  </i>
   <i type="int" name="NKREDLFX">     1</i>
   <i type="int" name="NKREDLFY">     1</i>
   <i type="int" name="NKREDLFZ">     1</i>
   <i type="int" name="MAXMEM">  2800</i>
   <i type="int" name="TELESCOPE">     0</i>
   <i type="int" name="NTAUPAR">    -1</i>
   <i type="int" name="NOMEGAPAR">    -1</i>
   <i name="DAMP_NEWTON">      0.80000001</i>
   <i name="LAMBDA">      1.00000000</i>
  </separator>
  <separator name="External order field" >
   <i name="OFIELD_KAPPA">      0.00000000</i>
   <v name="OFIELD_K">      0.00000000      0.00000000      0.00000000</v>
   <i name="OFIELD_Q6_NEAR">      0.00000000</i>
   <i name="OFIELD_Q6_FAR">      0.00000000</i>
   <i name="OFIELD_A">      0.00000000</i>
  </separator>
  <separator name="optional k-points parameters" >
   <i type="int" name="KPOINTS_OPT_MODE">     1</i>
   <i type="logical" name="LKPOINTS_OPT"> F  </i>
  </separator>
 </parameters>
 <atominfo>
  <atoms>      39 </atoms>
  <types>       3 </types>
  <array name="atoms" >
   <dimension dim="1">ion</dimension>
   <field type="string">element</field>
   <field type="int">atomtype</field>
   <set>
    <rc><c>Pd</c><c>   1</c></rc>
    <rc><c>Pd</c><c>   1</c></rc>
    <rc><c>Pd</c><c>   1</c></rc>
    <rc><c>Pd</c><c>   1</c></rc>
    <rc><c>Pd</c><c>   1</c></rc>
    <rc><c>Pd</c><c>   1</c></rc>
    <rc><c>Pd</c><c>   1</c></rc>
    <rc><c>Pd</c><c>   1</c></rc>
    <rc><c>Pd</c><c>   1</c></rc>
    <rc><c>Pd</c><c>   1</c></rc>
    <rc><c>Pd</c><c>   1</c></rc>
    <rc><c>Pd</c><c>   1</c></rc>
    <rc><c>Pd</c><c>   1</c></rc>
    <rc><c>Pd</c><c>   1</c></rc>
    <rc><c>Pd</c><c>   1</c></rc>
    <rc><c>Pd</c><c>   1</c></rc>
    <rc><c>Pd</c><c>   1</c></rc>
    <rc><c>Pd</c><c>   1</c></rc>
    <rc><c>Pd</c><c>   1</c></rc>
    <rc><c>Pd</c><c>   1</c></rc>
    <rc><c>Pd</c><c>   1</c></rc>
    <rc><c>Pd</c><c>   1</c></rc>
    <rc><c>Pd</c><c>   1</c></rc>
    <rc><c>Pd</c><c>   1</c></rc>
    <rc><c>Pd</c><c>   1</c></rc>
    <rc><c>Pd</c><c>   1</c></rc>
    <rc><c>Pd</c><c>   1</c></rc>
    <rc><c>Pd</c><c>   1</c></rc>
    <rc><c>Pd</c><c>   1</c></rc>
    <rc><c>Pd</c><c>   1</c></rc>
    <rc><c>Pd</c><c>   1</c></rc>
    <rc><c>Pd</c><c>   1</c></rc>
    <rc><c>Pd</c><c>   1</c></rc>
    <rc><c>Pd</c><c>   1</c></rc>
    <rc><c>Pd</c><c>   1</c></rc>
    <rc><c>Pd</c><c>   1</c></rc>
    <rc><c>H </c><c>   2</c></rc>
    <rc><c>H </c><c>   2</c></rc>
    <rc><c>S </c><c>   3</c></rc>
   </set>
  </array>
  <array name="atomtypes" >
   <dimension dim="1">type</dimension>
   <field type="int">atomspertype</field>
   <field type="string">element</field>
   <field>mass</field>
   <field>valence</field>
   <field type="string">pseudopotential</field>
   <set>
    <rc><c>  36</c><c>Pd</c><c>    106.42000000</c><c>     10.00000000</c><c>  PAW_PBE Pd 04Jan2005                  </c></rc>
    <rc><c>   2</c><c>H </c><c>      1.00000000</c><c>      1.00000000</c><c>  PAW_PBE H 15Jun2001                   </c></rc>
    <rc><c>   1</c><c>S </c><c>     32.06600000</c><c>      6.00000000</c><c>  PAW_PBE S 06Sep2000                   </c></rc>
   </set>
  </array>
 </atominfo>
 <structure name="initialpos" >
  <crystal>
   <varray name="basis" >
    <v>       8.35800215       0.00000000       0.00000000 </v>
    <v>       0.00000000       8.35800215       0.00000000 </v>
    <v>       0.00000000       0.00000000      19.91000000 </v>
   </varray>
   <i name="volume">   1390.83694200 </i>
   <varray name="rec_basis" >
    <v>       0.11964582       0.00000000       0.00000000 </v>
    <v>       0.00000000       0.11964582       0.00000000 </v>
    <v>       0.00000000       0.00000000       0.05022602 </v>
   </varray>
  </crystal>
  <varray name="positions" >
   <v>       0.16666667       0.16666667       0.00000000 </v>
   <v>       0.50000000       0.16666667       0.00000000 </v>
   <v>       0.83333333       0.16666667       0.00000000 </v>
   <v>       0.16666667       0.50000000       0.00000000 </v>
   <v>       0.50000000       0.50000000       0.00000000 </v>
   <v>       0.83333333       0.50000000       0.00000000 </v>
   <v>       0.16666667       0.83333333       0.00000000 </v>
   <v>       0.50000000       0.83333333       0.00000000 </v>
   <v>       0.83333333       0.83333333       0.00000000 </v>
   <v>       0.00000000       0.00000000       0.09894525 </v>
   <v>       0.33333333       0.00000000       0.09894525 </v>
   <v>       0.66666667       0.00000000       0.09894525 </v>
   <v>       0.00000000       0.33333333       0.09894525 </v>
   <v>       0.33333333       0.33333333       0.09894525 </v>
   <v>       0.66666667       0.33333333       0.09894525 </v>
   <v>       0.00000000       0.66666667       0.09894525 </v>
   <v>       0.33333333       0.66666667       0.09894525 </v>
   <v>       0.66666667       0.66666667       0.09894525 </v>
   <v>       0.16643790       0.16673390       0.19918736 </v>
   <v>       0.49816454       0.16779938       0.19903144 </v>
   <v>       0.83283551       0.16593924       0.19932721 </v>
   <v>       0.17380588       0.49990019       0.19821371 </v>
   <v>       0.50181913       0.50268367       0.20029396 </v>
   <v>       0.83728012       0.49931361       0.19862365 </v>
   <v>       0.17174893       0.83230322       0.19923721 </v>
   <v>       0.50045116       0.83032345       0.20160570 </v>
   <v>       0.83510487       0.82988064       0.19988231 </v>
   <v>       0.99682074       0.99601555       0.29748546 </v>
   <v>       0.33161782       0.00227981       0.29861557 </v>
   <v>       0.66545887       0.99867545       0.29805905 </v>
   <v>       0.00473286       0.32904421       0.30030926 </v>
   <v>       0.33940620       0.33013674       0.30426744 </v>
   <v>       0.67078361       0.33090148       0.29863635 </v>
   <v>       0.01325126       0.66679823       0.30004018 </v>
   <v>       0.34936754       0.67006868       0.31240951 </v>
   <v>       0.67546842       0.66213973       0.30193076 </v>
   <v>       0.51843794       0.25373461       0.34186080 </v>
   <v>       0.52760772       0.61556919       0.35722355 </v>
   <v>       0.17023324       0.49706218       0.36276412 </v>
  </varray>
  <varray name="selective"  type="logical" >
   <v type="logical" >  F  F  F </v>
   <v type="logical" >  F  F  F </v>
   <v type="logical" >  F  F  F </v>
   <v type="logical" >  F  F  F </v>
   <v type="logical" >  F  F  F </v>
   <v type="logical" >  F  F  F </v>
   <v type="logical" >  F  F  F </v>
   <v type="logical" >  F  F  F </v>
   <v type="logical" >  F  F  F </v>
   <v type="logical" >  F  F  F </v>
   <v type="logical" >  F  F  F </v>
   <v type="logical" >  F  F  F </v>
   <v type="logical" >  F  F  F </v>
   <v type="logical" >  F  F  F </v>
   <v type="logical" >  F  F  F </v>
   <v type="logical" >  F  F  F </v>
   <v type="logical" >  F  F  F </v>
   <v type="logical" >  F  F  F </v>
   <v type="logical" >  T  T  T </v>
   <v type="logical" >  T  T  T </v>
   <v type="logical" >  T  T  T </v>
   <v type="logical" >  T  T  T </v>
   <v type="logical" >  T  T  T </v>
   <v type="logical" >  T  T  T </v>
   <v type="logical" >  T  T  T </v>
   <v type="logical" >  T  T  T </v>
   <v type="logical" >  T  T  T </v>
   <v type="logical" >  T  T  T </v>
   <v type="logical" >  T  T  T </v>
   <v type="logical" >  T  T  T </v>
   <v type="logical" >  T  T  T </v>
   <v type="logical" >  T  T  T </v>
   <v type="logical" >  T  T  T </v>
   <v type="logical" >  T  T  T </v>
   <v type="logical" >  T  T  T </v>
   <v type="logical" >  T  T  T </v>
   <v type="logical" >  T  T  T </v>
   <v type="logical" >  T  T  T </v>
   <v type="logical" >  T  T  T </v>
  </varray>
  <nose>
   <v>      -3.00000000       0.00000000       0.00010000       0.00010000 </v>
  </nose>
 </structure>
 <calculation>
  <scstep>
   <time name="dav">    0.96    0.97</time>
   <time name="total">    1.02    1.02</time>
   <dipole>
    <v name="dipole">      0.00000000       0.00000000      -0.00002733 </v>
    <i name="Tr[quadrupol]">  -4536.00322021 </i>
    <i name="Echarged">      0.00000000 </i>
    <i name="Edipol_quadrupol">      0.00000000 </i>
    <i name="Eion">      0.00000000 </i>
   </dipole>
   <energy>
    <i name="alphaZ">    628.75267292 </i>
    <i name="ewald">  74941.32636096 </i>
    <i name="hartreedc">-105677.75365346 </i>
    <i name="XCdc">  -1046.19326540 </i>
    <i name="pawpsdc">  29264.33151030 </i>
    <i name="pawaedc"> -27021.15649540 </i>
    <i name="eentropy">     -0.00803102 </i>
    <i name="bandstr">   1574.68135178 </i>
    <i name="atom">  29452.55580095 </i>
    <i name="e_fr_energy">   2116.53625163 </i>
    <i name="e_wo_entrp">   2116.54428265 </i>
    <i name="e_0_energy">   2116.53892864 </i>
   </energy>
  </scstep>
  <scstep>
   <time name="dav">    0.98    0.99</time>
   <time name="total">    0.98    0.99</time>
   <dipole>
    <v name="dipole">      0.00000000       0.00000000      -0.00002733 </v>
    <i name="Tr[quadrupol]">  -4536.00322021 </i>
    <i name="Echarged">      0.00000000 </i>
    <i name="Edipol_quadrupol">      0.00000000 </i>
    <i name="Eion">      0.00000000 </i>
   </dipole>
   <energy>
    <i name="e_fr_energy">    -63.95123368 </i>
    <i name="e_wo_entrp">    -63.95205785 </i>
    <i name="e_0_energy">    -63.95150840 </i>
   </energy>
  </scstep>
  <scstep>
   <time name="dav">    0.99    1.00</time>
   <time name="total">    0.99    1.00</time>
   <dipole>
    <v name="dipole">      0.00000000       0.00000000      -0.00002733 </v>
    <i name="Tr[quadrupol]">  -4536.00322021 </i>
    <i name="Echarged">      0.00000000 </i>
    <i name="Edipol_quadrupol">      0.00000000 </i>
    <i name="Eion">      0.00000000 </i>
   </dipole>
   <energy>
    <i name="e_fr_energy">   -192.51694253 </i>
    <i name="e_wo_entrp">   -192.44543078 </i>
    <i name="e_0_energy">   -192.49310528 </i>
   </energy>
  </scstep>
  <scstep>
   <time name="dav">    1.00    1.01</time>
   <time name="total">    1.00    1.01</time>
   <dipole>
    <v name="dipole">      0.00000000       0.00000000      -0.00002733 </v>
    <i name="Tr[quadrupol]">  -4536.00322021 </i>
    <i name="Echarged">      0.00000000 </i>
    <i name="Edipol_quadrupol">      0.00000000 </i>
    <i name="Eion">      0.00000000 </i>
   </dipole>
   <energy>
    <i name="e_fr_energy">   -197.55255217 </i>
    <i name="e_wo_entrp">   -197.47608197 </i>
    <i name="e_0_energy">   -197.52706210 </i>
   </energy>
  </scstep>
  <scstep>
   <time name="dav">    1.01    1.02</time>
   <time name="total">    1.06    1.07</time>
   <dipole>
    <v name="dipole">      0.00000000       0.00000000      -0.00002733 </v>
    <i name="Tr[quadrupol]">  -4536.00322021 </i>
    <i name="Echarged">      0.00000000 </i>
    <i name="Edipol_quadrupol">      0.00000000 </i>
    <i name="Eion">      0.00000000 </i>
   </dipole>
   <energy>
    <i name="e_fr_energy">   -197.73587455 </i>
    <i name="e_wo_entrp">   -197.65941973 </i>
    <i name="e_0_energy">   -197.71038961 </i>
   </energy>
  </scstep>
  <scstep>
   <time name="diag">    0.15    0.15</time>
   <time name="diis">    0.53    0.53</time>
   <time name="orth">    0.02    0.02</time>
   <time name="total">    0.79    0.79</time>
   <dipole>
    <v name="dipole">      0.00000000       0.00000000      -0.41248385 </v>
    <i name="Tr[quadrupol]">  -4539.16192409 </i>
    <i name="Echarged">      0.00000000 </i>
    <i name="Edipol_quadrupol">      0.00000000 </i>
    <i name="Eion">      0.00000000 </i>
   </dipole>
   <energy>
    <i name="e_fr_energy">   -194.18094521 </i>
    <i name="e_wo_entrp">   -194.16263726 </i>
    <i name="e_0_energy">   -194.17484256 </i>
   </energy>
  </scstep>
  <scstep>
   <time name="diag">    0.15    0.15</time>
   <time name="diis">    0.59    0.60</time>
   <time name="orth">    0.02    0.02</time>
   <time name="total">    0.85    0.85</time>
   <dipole>
    <v name="dipole">      0.00000000       0.00000000       2.26239202 </v>
    <i name="Tr[quadrupol]">  -4540.74922934 </i>
    <i name="Echarged">      0.00000000 </i>
    <i name="Edipol_quadrupol">      0.00000000 </i>
    <i name="Eion">      0.00000000 </i>
   </dipole>
   <energy>
    <i name="e_fr_energy">   -265.42298744 </i>
    <i name="e_wo_entrp">   -265.43372678 </i>
    <i name="e_0_energy">   -265.42656722 </i>
   </energy>
  </scstep>
  <scstep>
   <time name="diag">    0.15    0.15</time>
   <time name="diis">    0.56    0.56</time>
   <time name="orth">    0.02    0.02</time>
   <time name="total">    0.81    0.82</time>
   <dipole>
    <v name="dipole">      0.00000000       0.00000000       0.22350849 </v>
    <i name="Tr[quadrupol]">  -4544.30070089 </i>
    <i name="Echarged">      0.00000000 </i>
    <i name="Edipol_quadrupol">      0.00000000 </i>
    <i name="Eion">      0.00000000 </i>
   </dipole>
   <energy>
    <i name="e_fr_energy">   -214.19644537 </i>
    <i name="e_wo_entrp">   -214.20992711 </i>
    <i name="e_0_energy">   -214.20093928 </i>
   </energy>
  </scstep>
  <scstep>
   <time name="diag">    0.15    0.15</time>
   <time name="diis">    0.54    0.54</time>
   <time name="orth">    0.02    0.02</time>
   <time name="total">    0.80    0.80</time>
   <dipole>
    <v name="dipole">      0.00000000       0.00000000       0.00678133 </v>
    <i name="Tr[quadrupol]">  -4541.84071734 </i>
    <i name="Echarged">      0.00000000 </i>
    <i name="Edipol_quadrupol">      0.00000000 </i>
    <i name="Eion">      0.00000000 </i>
   </dipole>
   <energy>
    <i name="e_fr_energy">   -194.28358410 </i>
    <i name="e_wo_entrp">   -194.29049146 </i>
    <i name="e_0_energy">   -194.28588655 </i>
   </energy>
  </scstep>
  <scstep>
   <time name="diag">    0.15    0.15</time>
   <time name="diis">    0.53    0.54</time>
   <time name="orth">    0.02    0.02</time>
   <time name="total">    0.79    0.80</time>
   <dipole>
    <v name="dipole">      0.00000000       0.00000000      -0.15038014 </v>
    <i name="Tr[quadrupol]">  -4542.07000007 </i>
    <i name="Echarged">      0.00000000 </i>
    <i name="Edipol_quadrupol">      0.00000000 </i>
    <i name="Eion">      0.00000000 </i>
   </dipole>
   <energy>
    <i name="e_fr_energy">   -190.19264042 </i>
    <i name="e_wo_entrp">   -190.16983833 </i>
    <i name="e_0_energy">   -190.18503973 </i>
   </energy>
  </scstep>
  <scstep>
   <time name="diag">    0.15    0.15</time>
   <time name="diis">    0.54    0.54</time>
   <time name="orth">    0.02    0.02</time>
   <time name="total">    0.79    0.80</time>
   <dipole>
    <v name="dipole">      0.00000000       0.00000000       0.03490594 </v>
    <i name="Tr[quadrupol]">  -4543.18624560 </i>
    <i name="Echarged">      0.00000000 </i>
    <i name="Edipol_quadrupol">      0.00000000 </i>
    <i name="Eion">      0.00000000 </i>
   </dipole>
   <energy>
    <i name="e_fr_energy">   -190.14123755 </i>
    <i name="e_wo_entrp">   -190.13419009 </i>
    <i name="e_0_energy">   -190.13888840 </i>
   </energy>
  </scstep>
  <scstep>
   <time name="diag">    0.15    0.15</time>
   <time name="diis">    0.53    0.53</time>
   <time name="orth">    0.02    0.02</time>
   <time name="total">    0.79    0.79</time>
   <dipole>
    <v name="dipole">      0.00000000       0.00000000      -0.02202678 </v>
    <i name="Tr[quadrupol]">  -4542.93753070 </i>
    <i name="Echarged">      0.00000000 </i>
    <i name="Edipol_quadrupol">      0.00000000 </i>
    <i name="Eion">      0.00000000 </i>
   </dipole>
   <energy>
    <i name="e_fr_energy">   -189.13905594 </i>
    <i name="e_wo_entrp">   -189.08680196 </i>
    <i name="e_0_energy">   -189.12163795 </i>
   </energy>
  </scstep>
  <scstep>
   <time name="diag">    0.15    0.15</time>
   <time name="diis">    0.53    0.54</time>
   <time name="orth">    0.02    0.02</time>
   <time name="total">    0.79    0.80</time>
   <dipole>
    <v name="dipole">      0.00000000       0.00000000      -0.02061607 </v>
    <i name="Tr[quadrupol]">  -4543.44917949 </i>
    <i name="Echarged">      0.00000000 </i>
    <i name="Edipol_quadrupol">      0.00000000 </i>
    <i name="Eion">      0.00000000 </i>
   </dipole>
   <energy>
    <i name="e_fr_energy">   -188.90297149 </i>
    <i name="e_wo_entrp">   -188.81298452 </i>
    <i name="e_0_energy">   -188.87297583 </i>
   </energy>
  </scstep>
  <scstep>
   <time name="diag">    0.15    0.15</time>
   <time name="diis">    0.54    0.54</time>
   <time name="orth">    0.02    0.02</time>
   <time name="total">    0.80    0.80</time>
   <dipole>
    <v name="dipole">      0.00000000       0.00000000      -0.02275109 </v>
    <i name="Tr[quadrupol]">  -4543.75590352 </i>
    <i name="Echarged">      0.00000000 </i>
    <i name="Edipol_quadrupol">      0.00000000 </i>
    <i name="Eion">      0.00000000 </i>
   </dipole>
   <energy>
    <i name="e_fr_energy">   -188.80686502 </i>
    <i name="e_wo_entrp">   -188.69617632 </i>
    <i name="e_0_energy">   -188.76996878 </i>
   </energy>
  </scstep>
  <scstep>
   <time name="diag">    0.15    0.15</time>
   <time name="diis">    0.53    0.54</time>
   <time name="orth">    0.02    0.02</time>
   <time name="total">    0.79    0.79</time>
   <dipole>
    <v name="dipole">      0.00000000       0.00000000       0.00268655 </v>
    <i name="Tr[quadrupol]">  -4544.00270494 </i>
    <i name="Echarged">      0.00000000 </i>
    <i name="Edipol_quadrupol">      0.00000000 </i>
    <i name="Eion">      0.00000000 </i>
   </dipole>
   <energy>
    <i name="e_fr_energy">   -188.72497018 </i>
    <i name="e_wo_entrp">   -188.61694062 </i>
    <i name="e_0_energy">   -188.68896033 </i>
   </energy>
  </scstep>
  <scstep>
   <time name="diag">    0.15    0.15</time>
   <time name="diis">    0.54    0.54</time>
   <time name="orth">    0.02    0.02</time>
   <time name="total">    0.80    0.80</time>
   <dipole>
    <v name="dipole">      0.00000000       0.00000000       0.04728236 </v>
    <i name="Tr[quadrupol]">  -4544.18337722 </i>
    <i name="Echarged">      0.00000000 </i>
    <i name="Edipol_quadrupol">      0.00000000 </i>
    <i name="Eion">      0.00000000 </i>
   </dipole>
   <energy>
    <i name="e_fr_energy">   -188.70593037 </i>
    <i name="e_wo_entrp">   -188.60805099 </i>
    <i name="e_0_energy">   -188.67330391 </i>
   </energy>
  </scstep>
  <scstep>
   <time name="diag">    0.15    0.15</time>
   <time name="diis">    0.54    0.54</time>
   <time name="orth">    0.02    0.02</time>
   <time name="total">    0.80    0.80</time>
   <dipole>
    <v name="dipole">      0.00000000       0.00000000       0.06046011 </v>
    <i name="Tr[quadrupol]">  -4544.29914943 </i>
    <i name="Echarged">      0.00000000 </i>
    <i name="Edipol_quadrupol">      0.00000000 </i>
    <i name="Eion">      0.00000000 </i>
   </dipole>
   <energy>
    <i name="e_fr_energy">   -188.67430830 </i>
    <i name="e_wo_entrp">   -188.57084258 </i>
    <i name="e_0_energy">   -188.63981973 </i>
   </energy>
  </scstep>
  <scstep>
   <time name="diag">    0.15    0.15</time>
   <time name="diis">    0.59    0.59</time>
   <time name="orth">    0.02    0.02</time>
   <time name="total">    0.84    0.85</time>
   <dipole>
    <v name="dipole">      0.00000000       0.00000000       0.01248048 </v>
    <i name="Tr[quadrupol]">  -4544.73283437 </i>
    <i name="Echarged">      0.00000000 </i>
    <i name="Edipol_quadrupol">      0.00000000 </i>
    <i name="Eion">      0.00000000 </i>
   </dipole>
   <energy>
    <i name="e_fr_energy">   -188.66932817 </i>
    <i name="e_wo_entrp">   -188.54190142 </i>
    <i name="e_0_energy">   -188.62685259 </i>
   </energy>
  </scstep>
  <scstep>
   <time name="diag">    0.15    0.15</time>
   <time name="diis">    0.55    0.55</time>
   <time name="orth">    0.02    0.02</time>
   <time name="total">    0.81    0.81</time>
   <dipole>
    <v name="dipole">      0.00000000       0.00000000       0.02168259 </v>
    <i name="Tr[quadrupol]">  -4545.02309261 </i>
    <i name="Echarged">      0.00000000 </i>
    <i name="Edipol_quadrupol">      0.00000000 </i>
    <i name="Eion">      0.00000000 </i>
   </dipole>
   <energy>
    <i name="e_fr_energy">   -188.65350255 </i>
    <i name="e_wo_entrp">   -188.52759524 </i>
    <i name="e_0_energy">   -188.61153345 </i>
   </energy>
  </scstep>
  <scstep>
   <time name="diag">    0.15    0.15</time>
   <time name="diis">    0.54    0.54</time>
   <time name="orth">    0.02    0.02</time>
   <time name="total">    0.79    0.80</time>
   <dipole>
    <v name="dipole">      0.00000000       0.00000000       0.02493367 </v>
    <i name="Tr[quadrupol]">  -4545.13801932 </i>
    <i name="Echarged">      0.00000000 </i>
    <i name="Edipol_quadrupol">      0.00000000 </i>
    <i name="Eion">      0.00000000 </i>
   </dipole>
   <energy>
    <i name="e_fr_energy">   -188.64593811 </i>
    <i name="e_wo_entrp">   -188.52559927 </i>
    <i name="e_0_energy">   -188.60582516 </i>
   </energy>
  </scstep>
  <scstep>
   <time name="diag">    0.15    0.15</time>
   <time name="diis">    0.55    0.55</time>
   <time name="orth">    0.02    0.02</time>
   <time name="total">    0.80    0.81</time>
   <dipole>
    <v name="dipole">      0.00000000       0.00000000       0.03237787 </v>
    <i name="Tr[quadrupol]">  -4545.27122935 </i>
    <i name="Echarged">      0.00000000 </i>
    <i name="Edipol_quadrupol">      0.00000000 </i>
    <i name="Eion">      0.00000000 </i>
   </dipole>
   <energy>
    <i name="e_fr_energy">   -188.64354429 </i>
    <i name="e_wo_entrp">   -188.52775569 </i>
    <i name="e_0_energy">   -188.60494809 </i>
   </energy>
  </scstep>
  <scstep>
   <time name="diag">    0.15    0.15</time>
   <time name="diis">    0.56    0.57</time>
   <time name="orth">    0.02    0.02</time>
   <time name="total">    0.82    0.83</time>
   <dipole>
    <v name="dipole">      0.00000000       0.00000000       0.04598699 </v>
    <i name="Tr[quadrupol]">  -4545.50292748 </i>
    <i name="Echarged">      0.00000000 </i>
    <i name="Edipol_quadrupol">      0.00000000 </i>
    <i name="Eion">      0.00000000 </i>
   </dipole>
   <energy>
    <i name="e_fr_energy">   -188.64433057 </i>
    <i name="e_wo_entrp">   -188.53252035 </i>
    <i name="e_0_energy">   -188.60706050 </i>
   </energy>
  </scstep>
  <scstep>
   <time name="diag">    0.15    0.15</time>
   <time name="diis">    0.55    0.55</time>
   <time name="orth">    0.02    0.02</time>
   <time name="total">    0.81    0.81</time>
   <dipole>
    <v name="dipole">      0.00000000       0.00000000       0.04708720 </v>
    <i name="Tr[quadrupol]">  -4545.66596104 </i>
    <i name="Echarged">      0.00000000 </i>
    <i name="Edipol_quadrupol">      0.00000000 </i>
    <i name="Eion">      0.00000000 </i>
   </dipole>
   <energy>
    <i name="e_fr_energy">   -188.64247862 </i>
    <i name="e_wo_entrp">   -188.52940223 </i>
    <i name="e_0_energy">   -188.60478649 </i>
   </energy>
  </scstep>
  <scstep>
   <time name="diag">    0.15    0.15</time>
   <time name="diis">    0.54    0.55</time>
   <time name="orth">    0.02    0.02</time>
   <time name="total">    0.80    0.81</time>
   <dipole>
    <v name="dipole">      0.00000000       0.00000000       0.04637273 </v>
    <i name="Tr[quadrupol]">  -4545.89097370 </i>
    <i name="Echarged">      0.00000000 </i>
    <i name="Edipol_quadrupol">      0.00000000 </i>
    <i name="Eion">      0.00000000 </i>
   </dipole>
   <energy>
    <i name="e_fr_energy">   -188.64149976 </i>
    <i name="e_wo_entrp">   -188.52743784 </i>
    <i name="e_0_energy">   -188.60347912 </i>
   </energy>
  </scstep>
  <scstep>
   <time name="diag">    0.15    0.15</time>
   <time name="diis">    0.45    0.45</time>
   <time name="orth">    0.02    0.02</time>
   <time name="total">    0.71    0.71</time>
   <dipole>
    <v name="dipole">      0.00000000       0.00000000       0.04618830 </v>
    <i name="Tr[quadrupol]">  -4546.02702766 </i>
    <i name="Echarged">      0.00000000 </i>
    <i name="Edipol_quadrupol">      0.00000000 </i>
    <i name="Eion">      0.00000000 </i>
   </dipole>
   <energy>
    <i name="e_fr_energy">   -188.64132241 </i>
    <i name="e_wo_entrp">   -188.52556299 </i>
    <i name="e_0_energy">   -188.60273593 </i>
   </energy>
  </scstep>
  <scstep>
   <time name="diag">    0.15    0.15</time>
   <time name="diis">    0.40    0.40</time>
   <time name="orth">    0.02    0.02</time>
   <time name="total">    0.61    0.62</time>
   <dipole>
    <v name="dipole">      0.00000000       0.00000000       0.04758561 </v>
    <i name="Tr[quadrupol]">  -4546.16766037 </i>
    <i name="Echarged">      0.00000000 </i>
    <i name="Edipol_quadrupol">      0.00000000 </i>
    <i name="Eion">      0.00000000 </i>
   </dipole>
   <energy>
    <i name="alphaZ">    628.71083462 </i>
    <i name="ewald">  74941.32636096 </i>
    <i name="hartreedc">-105704.41393406 </i>
    <i name="XCdc">  -1053.03195472 </i>
    <i name="pawpsdc">  34271.39580212 </i>
    <i name="pawaedc"> -32101.02842154 </i>
    <i name="eentropy">     -0.11514201 </i>
    <i name="bandstr">   -624.04070032 </i>
    <i name="atom">  29452.55580095 </i>
    <i name="e_fr_energy">   -188.64135402 </i>
    <i name="e_wo_entrp">   -188.52621200 </i>
    <i name="e_0_energy">   -188.60297335 </i>
   </energy>
  </scstep>
  <structure>
   <crystal>
    <varray name="basis" >
     <v>       8.35800215       0.00000000       0.00000000 </v>
     <v>       0.00000000       8.35800215       0.00000000 </v>
     <v>       0.00000000       0.00000000      19.91000000 </v>
    </varray>
    <i name="volume">   1390.83694200 </i>
    <varray name="rec_basis" >
     <v>       0.11964582       0.00000000       0.00000000 </v>
     <v>       0.00000000       0.11964582       0.00000000 </v>
     <v>       0.00000000       0.00000000       0.05022602 </v>
    </varray>
   </crystal>
   <varray name="positions" >
    <v>       0.16666667       0.16666667       0.00000000 </v>
    <v>       0.50000000       0.16666667       0.00000000 </v>
    <v>       0.83333333       0.16666667       0.00000000 </v>
    <v>       0.16666667       0.50000000       0.00000000 </v>
    <v>       0.50000000       0.50000000       0.00000000 </v>
    <v>       0.83333333       0.50000000       0.00000000 </v>
    <v>       0.16666667       0.83333333       0.00000000 </v>
    <v>       0.50000000       0.83333333       0.00000000 </v>
    <v>       0.83333333       0.83333333       0.00000000 </v>
    <v>       0.00000000       0.00000000       0.09894525 </v>
    <v>       0.33333333       0.00000000       0.09894525 </v>
    <v>       0.66666667       0.00000000       0.09894525 </v>
    <v>       0.00000000       0.33333333       0.09894525 </v>
    <v>       0.33333333       0.33333333       0.09894525 </v>
    <v>       0.66666667       0.33333333       0.09894525 </v>
    <v>       0.00000000       0.66666667       0.09894525 </v>
    <v>       0.33333333       0.66666667       0.09894525 </v>
    <v>       0.66666667       0.66666667       0.09894525 </v>
    <v>       0.16643790       0.16673390       0.19918736 </v>
    <v>       0.49816454       0.16779938       0.19903144 </v>
    <v>       0.83283551       0.16593924       0.19932721 </v>
    <v>       0.17380588       0.49990019       0.19821371 </v>
    <v>       0.50181913       0.50268367       0.20029396 </v>
    <v>       0.83728012       0.49931361       0.19862365 </v>
    <v>       0.17174893       0.83230322       0.19923721 </v>
    <v>       0.50045116       0.83032345       0.20160570 </v>
    <v>       0.83510487       0.82988064       0.19988231 </v>
    <v>       0.99682074       0.99601555       0.29748546 </v>
    <v>       0.33161782       0.00227981       0.29861557 </v>
    <v>       0.66545887       0.99867545       0.29805905 </v>
    <v>       0.00473286       0.32904421       0.30030926 </v>
    <v>       0.33940620       0.33013674       0.30426744 </v>
    <v>       0.67078361       0.33090148       0.29863635 </v>
    <v>       0.01325126       0.66679823       0.30004018 </v>
    <v>       0.34936754       0.67006868       0.31240951 </v>
    <v>       0.67546842       0.66213973       0.30193076 </v>
    <v>       0.51843794       0.25373461       0.34186080 </v>
    <v>       0.52760772       0.61556919       0.35722355 </v>
    <v>       0.17023324       0.49706218       0.36276412 </v>
   </varray>
  </structure>
  <varray name="forces" >
   <v>       0.00057858      -0.01138713       0.09901942 </v>
   <v>      -0.03499961       0.00699751       0.08917333 </v>
   <v>       0.01865129       0.02071953       0.05873882 </v>
   <v>       0.01097478      -0.01326801       0.05743985 </v>
   <v>       0.01549649       0.01751385       0.10889672 </v>
   <v>      -0.02346006      -0.00781640       0.13935257 </v>
   <v>       0.02716081       0.04847008       0.11526706 </v>
   <v>      -0.01637799      -0.02224492       0.07644945 </v>
   <v>       0.00122777      -0.02061783       0.06766955 </v>
   <v>      -0.03114974      -0.05728893       0.00100967 </v>
   <v>       0.07077978      -0.01448095       0.07141318 </v>
   <v>      -0.04999313      -0.06117416      -0.04844157 </v>
   <v>       0.03576488       0.01206548       0.02444779 </v>
   <v>       0.03619127       0.00794979       0.01509473 </v>
   <v>      -0.02614769      -0.00131713       0.08362565 </v>
   <v>       0.09338524       0.02832697       0.04845175 </v>
   <v>       0.07614809       0.03654276      -0.01764481 </v>
   <v>       0.02998193       0.01897944       0.07228809 </v>
   <v>       0.00110617      -0.05552741      -0.11730903 </v>
   <v>       0.01484400      -0.03124779      -0.00742408 </v>
   <v>       0.09301722       0.00765282      -0.02748888 </v>
   <v>      -0.02022715      -0.00442985       0.04003144 </v>
   <v>       0.08207335      -0.05066188      -0.04594195 </v>
   <v>      -0.05149676      -0.05155112       0.08731185 </v>
   <v>      -0.02737072       0.00972915       0.01341815 </v>
   <v>      -0.01609757       0.00510285      -0.03808632 </v>
   <v>      -0.04850585       0.00467220       0.06063035 </v>
   <v>       0.04791093       0.07854195       0.00861081 </v>
   <v>      -0.00572748      -0.11098284      -0.05100539 </v>
   <v>       0.06186705      -0.01999485       0.02036328 </v>
   <v>      -0.03221810       0.07988888      -0.03380535 </v>
   <v>       0.03045718      -0.10892822      -0.17786500 </v>
   <v>       0.20556561       0.01375439      -0.09709861 </v>
   <v>      -0.15467548       0.02129047      -0.06829326 </v>
   <v>      -0.02144825      -0.00490425      -0.28308759 </v>
   <v>       0.09759696       0.08770218      -0.04779498 </v>
   <v>      -0.14249477      -0.11093378       0.06296153 </v>
   <v>      -0.01162490       0.26761086      -0.31931682 </v>
   <v>      -0.33676414      -0.01475368      -0.04106143 </v>
  </varray>
  <varray name="stress" >
   <v>     -27.95331393       0.38663263      -1.75094591 </v>
   <v>       0.38663268     -28.38131191       0.61103254 </v>
   <v>      -1.75094590       0.61103253      -9.08718209 </v>
  </varray>
  <energy>
   <i name="e_fr_energy">   -188.64135402 </i>
   <i name="e_wo_entrp">   -188.52621200 </i>
   <i name="e_0_energy">   -188.60297335 </i>
  </energy>
  <time name="totalsc">   22.57   22.69</time>
  <eigenvalues>
   <array>
    <dimension dim="1">band</dimension>
    <dimension dim="2">kpoint</dimension>
    <dimension dim="3">spin</dimension>
    <field>eigene</field>
    <field>occ</field>
    <set>
     <set comment="spin 1">
      <set comment="kpoint 1">
       <r>  -13.1233    1.0000 </r>
       <r>   -5.5950    1.0000 </r>
       <r>   -5.2538    1.0000 </r>
       <r>   -5.0177    1.0000 </r>
       <r>   -4.9114    1.0000 </r>
       <r>   -4.7310    1.0000 </r>
       <r>   -4.4303    1.0000 </r>
       <r>   -4.2259    1.0000 </r>
       <r>   -4.1785    1.0000 </r>
       <r>   -3.9683    1.0000 </r>
       <r>   -3.8167    1.0000 </r>
       <r>   -3.8027    1.0000 </r>
       <r>   -3.7947    1.0000 </r>
       <r>   -3.7569    1.0000 </r>
       <r>   -3.7455    1.0000 </r>
       <r>   -3.7423    1.0000 </r>
       <r>   -3.6994    1.0000 </r>
       <r>   -3.6163    1.0000 </r>
       <r>   -3.6062    1.0000 </r>
       <r>   -3.5758    1.0000 </r>
       <r>   -3.5595    1.0000 </r>
       <r>   -3.5535    1.0000 </r>
       <r>   -3.5146    1.0000 </r>
       <r>   -3.4041    1.0000 </r>
       <r>   -3.3853    1.0000 </r>
       <r>   -3.3807    1.0000 </r>
       <r>   -3.3398    1.0000 </r>
       <r>   -3.2902    1.0000 </r>
       <r>   -3.2697    1.0000 </r>
       <r>   -3.2380    1.0000 </r>
       <r>   -3.2306    1.0000 </r>
       <r>   -3.2169    1.0000 </r>
       <r>   -3.1959    1.0000 </r>
       <r>   -3.1805    1.0000 </r>
       <r>   -3.1423    1.0000 </r>
       <r>   -3.1150    1.0000 </r>
       <r>   -3.0714    1.0000 </r>
       <r>   -3.0129    1.0000 </r>
       <r>   -2.9786    1.0000 </r>
       <r>   -2.9692    1.0000 </r>
       <r>   -2.9395    1.0000 </r>
       <r>   -2.9155    1.0000 </r>
       <r>   -2.8931    1.0000 </r>
       <r>   -2.8734    1.0000 </r>
       <r>   -2.8602    1.0000 </r>
       <r>   -2.8200    1.0000 </r>
       <r>   -2.7665    1.0000 </r>
       <r>   -2.6934    1.0000 </r>
       <r>   -2.6897    1.0000 </r>
       <r>   -2.6572    1.0000 </r>
       <r>   -2.6391    1.0000 </r>
       <r>   -2.6148    1.0000 </r>
       <r>   -2.5867    1.0000 </r>
       <r>   -2.5633    1.0000 </r>
       <r>   -2.5184    1.0000 </r>
       <r>   -2.5085    1.0000 </r>
       <r>   -2.4968    1.0000 </r>
       <r>   -2.4504    1.0000 </r>
       <r>   -2.4147    1.0000 </r>
       <r>   -2.4093    1.0000 </r>
       <r>   -2.3589    1.0000 </r>
       <r>   -2.3505    1.0000 </r>
       <r>   -2.2839    1.0000 </r>
       <r>   -2.2685    1.0000 </r>
       <r>   -2.2436    1.0000 </r>
       <r>   -2.2093    1.0000 </r>
       <r>   -2.1573    1.0000 </r>
       <r>   -2.1395    1.0000 </r>
       <r>   -2.1127    1.0000 </r>
       <r>   -2.0845    1.0000 </r>
       <r>   -2.0690    1.0000 </r>
       <r>   -2.0255    1.0000 </r>
       <r>   -1.9953    1.0000 </r>
       <r>   -1.9618    1.0000 </r>
       <r>   -1.9219    1.0000 </r>
       <r>   -1.8932    1.0000 </r>
       <r>   -1.8507    1.0000 </r>
       <r>   -1.8341    1.0000 </r>
       <r>   -1.8006    1.0000 </r>
       <r>   -1.7890    1.0000 </r>
       <r>   -1.7591    1.0000 </r>
       <r>   -1.7276    1.0000 </r>
       <r>   -1.7205    1.0000 </r>
       <r>   -1.6858    1.0000 </r>
       <r>   -1.6693    1.0000 </r>
       <r>   -1.6604    1.0000 </r>
       <r>   -1.6495    1.0000 </r>
       <r>   -1.6396    1.0000 </r>
       <r>   -1.6251    1.0000 </r>
       <r>   -1.6120    1.0000 </r>
       <r>   -1.5916    1.0000 </r>
       <r>   -1.5678    1.0000 </r>
       <r>   -1.5505    1.0000 </r>
       <r>   -1.5176    1.0000 </r>
       <r>   -1.5118    1.0000 </r>
       <r>   -1.4969    1.0000 </r>
       <r>   -1.4605    1.0000 </r>
       <r>   -1.4141    1.0000 </r>
       <r>   -1.3993    1.0000 </r>
       <r>   -1.3779    1.0000 </r>
       <r>   -1.3480    1.0000 </r>
       <r>   -1.3218    1.0000 </r>
       <r>   -1.3028    1.0000 </r>
       <r>   -1.2940    1.0000 </r>
       <r>   -1.2335    1.0000 </r>
       <r>   -1.1634    1.0000 </r>
       <r>   -1.1551    1.0000 </r>
       <r>   -1.1316    1.0000 </r>
       <r>   -1.1104    1.0000 </r>
       <r>   -1.0935    1.0000 </r>
       <r>   -1.0624    1.0000 </r>
       <r>   -1.0507    1.0000 </r>
       <r>   -1.0118    1.0000 </r>
       <r>   -0.9926    1.0000 </r>
       <r>   -0.9525    1.0000 </r>
       <r>   -0.9439    1.0000 </r>
       <r>   -0.9226    1.0000 </r>
       <r>   -0.8976    1.0000 </r>
       <r>   -0.8834    1.0000 </r>
       <r>   -0.8718    1.0000 </r>
       <r>   -0.8611    1.0000 </r>
       <r>   -0.8486    1.0000 </r>
       <r>   -0.8125    1.0000 </r>
       <r>   -0.8017    1.0000 </r>
       <r>   -0.7744    1.0000 </r>
       <r>   -0.7481    1.0000 </r>
       <r>   -0.7407    1.0000 </r>
       <r>   -0.7147    1.0000 </r>
       <r>   -0.6778    1.0000 </r>
       <r>   -0.6620    1.0000 </r>
       <r>   -0.6348    1.0000 </r>
       <r>   -0.6126    1.0000 </r>
       <r>   -0.5923    1.0000 </r>
       <r>   -0.5454    1.0000 </r>
       <r>   -0.5227    1.0000 </r>
       <r>   -0.4930    1.0000 </r>
       <r>   -0.4759    1.0000 </r>
       <r>   -0.4544    1.0000 </r>
       <r>   -0.4374    1.0000 </r>
       <r>   -0.4169    1.0000 </r>
       <r>   -0.3931    1.0000 </r>
       <r>   -0.3732    1.0000 </r>
       <r>   -0.3361    1.0000 </r>
       <r>   -0.3068    1.0000 </r>
       <r>   -0.2931    1.0000 </r>
       <r>   -0.2713    1.0000 </r>
       <r>   -0.2252    1.0000 </r>
       <r>   -0.2127    1.0000 </r>
       <r>   -0.1848    1.0000 </r>
       <r>   -0.1503    1.0000 </r>
       <r>   -0.1275    1.0000 </r>
       <r>   -0.0815    1.0000 </r>
       <r>   -0.0500    1.0000 </r>
       <r>   -0.0151    1.0000 </r>
       <r>    0.0205    1.0000 </r>
       <r>    0.0288    1.0000 </r>
       <r>    0.0466    1.0000 </r>
       <r>    0.0674    1.0000 </r>
       <r>    0.0768    1.0000 </r>
       <r>    0.0903    1.0000 </r>
       <r>    0.1257    1.0000 </r>
       <r>    0.1433    1.0000 </r>
       <r>    0.1678    1.0000 </r>
       <r>    0.2008    1.0000 </r>
       <r>    0.2223    1.0000 </r>
       <r>    0.2537    1.0000 </r>
       <r>    0.2812    1.0000 </r>
       <r>    0.2918    1.0000 </r>
       <r>    0.3008    1.0000 </r>
       <r>    0.3240    1.0001 </r>
       <r>    0.3591    1.0003 </r>
       <r>    0.3770    1.0008 </r>
       <r>    0.3906    1.0015 </r>
       <r>    0.4032    1.0026 </r>
       <r>    0.4160    1.0042 </r>
       <r>    0.4495    1.0126 </r>
       <r>    0.4703    1.0212 </r>
       <r>    0.4814    1.0263 </r>
       <r>    0.4987    1.0332 </r>
       <r>    0.5788    0.8993 </r>
       <r>    0.5868    0.8567 </r>
       <r>    0.5943    0.8110 </r>
       <r>    0.6001    0.7724 </r>
       <r>    0.6320    0.5203 </r>
       <r>    0.6434    0.4244 </r>
       <r>    0.6524    0.3504 </r>
       <r>    0.6736    0.1948 </r>
       <r>    0.6832    0.1366 </r>
       <r>    0.7914   -0.0245 </r>
       <r>    0.8929   -0.0008 </r>
       <r>    0.9288   -0.0001 </r>
       <r>    0.9611   -0.0000 </r>
       <r>    1.1894   -0.0000 </r>
       <r>    1.3574   -0.0000 </r>
       <r>    1.5263   -0.0000 </r>
       <r>    1.5522   -0.0000 </r>
       <r>    1.6985   -0.0000 </r>
       <r>    1.8938   -0.0000 </r>
       <r>    1.9802   -0.0000 </r>
       <r>    2.1834   -0.0000 </r>
       <r>    2.3379   -0.0000 </r>
       <r>    2.5190   -0.0000 </r>
       <r>    2.6549    0.0000 </r>
       <r>    3.0530    0.0000 </r>
       <r>    3.3132    0.0000 </r>
       <r>    3.4309    0.0000 </r>
       <r>    3.5847    0.0000 </r>
       <r>    3.7908    0.0000 </r>
       <r>    4.0119    0.0000 </r>
       <r>    4.1049    0.0000 </r>
       <r>    4.3496    0.0000 </r>
       <r>    4.4932    0.0000 </r>
       <r>    4.7146    0.0000 </r>
       <r>    4.8890    0.0000 </r>
       <r>    5.1508    0.0000 </r>
       <r>    5.3702    0.0000 </r>
       <r>    5.6120    0.0000 </r>
       <r>    5.7795    0.0000 </r>
       <r>    5.8306    0.0000 </r>
       <r>    5.9230    0.0000 </r>
      </set>
      <set comment="kpoint 2">
       <r>  -13.1233    1.0000 </r>
       <r>   -5.6056    1.0000 </r>
       <r>   -5.2164    1.0000 </r>
       <r>   -5.0527    1.0000 </r>
       <r>   -4.9034    1.0000 </r>
       <r>   -4.7304    1.0000 </r>
       <r>   -4.4118    1.0000 </r>
       <r>   -4.2316    1.0000 </r>
       <r>   -4.1998    1.0000 </r>
       <r>   -3.9691    1.0000 </r>
       <r>   -3.8163    1.0000 </r>
       <r>   -3.8048    1.0000 </r>
       <r>   -3.8034    1.0000 </r>
       <r>   -3.7676    1.0000 </r>
       <r>   -3.7439    1.0000 </r>
       <r>   -3.7311    1.0000 </r>
       <r>   -3.6956    1.0000 </r>
       <r>   -3.6160    1.0000 </r>
       <r>   -3.6032    1.0000 </r>
       <r>   -3.5767    1.0000 </r>
       <r>   -3.5574    1.0000 </r>
       <r>   -3.5431    1.0000 </r>
       <r>   -3.5189    1.0000 </r>
       <r>   -3.3864    1.0000 </r>
       <r>   -3.3783    1.0000 </r>
       <r>   -3.3696    1.0000 </r>
       <r>   -3.3627    1.0000 </r>
       <r>   -3.3060    1.0000 </r>
       <r>   -3.2643    1.0000 </r>
       <r>   -3.2397    1.0000 </r>
       <r>   -3.2323    1.0000 </r>
       <r>   -3.2253    1.0000 </r>
       <r>   -3.1903    1.0000 </r>
       <r>   -3.1759    1.0000 </r>
       <r>   -3.1456    1.0000 </r>
       <r>   -3.1142    1.0000 </r>
       <r>   -3.0880    1.0000 </r>
       <r>   -3.0166    1.0000 </r>
       <r>   -2.9774    1.0000 </r>
       <r>   -2.9678    1.0000 </r>
       <r>   -2.9220    1.0000 </r>
       <r>   -2.9019    1.0000 </r>
       <r>   -2.8924    1.0000 </r>
       <r>   -2.8667    1.0000 </r>
       <r>   -2.8568    1.0000 </r>
       <r>   -2.8096    1.0000 </r>
       <r>   -2.7916    1.0000 </r>
       <r>   -2.6959    1.0000 </r>
       <r>   -2.6762    1.0000 </r>
       <r>   -2.6609    1.0000 </r>
       <r>   -2.6306    1.0000 </r>
       <r>   -2.6146    1.0000 </r>
       <r>   -2.5885    1.0000 </r>
       <r>   -2.5638    1.0000 </r>
       <r>   -2.5331    1.0000 </r>
       <r>   -2.5035    1.0000 </r>
       <r>   -2.4781    1.0000 </r>
       <r>   -2.4648    1.0000 </r>
       <r>   -2.4202    1.0000 </r>
       <r>   -2.4056    1.0000 </r>
       <r>   -2.3412    1.0000 </r>
       <r>   -2.3295    1.0000 </r>
       <r>   -2.3064    1.0000 </r>
       <r>   -2.2774    1.0000 </r>
       <r>   -2.2318    1.0000 </r>
       <r>   -2.2170    1.0000 </r>
       <r>   -2.1717    1.0000 </r>
       <r>   -2.1396    1.0000 </r>
       <r>   -2.1247    1.0000 </r>
       <r>   -2.0907    1.0000 </r>
       <r>   -2.0600    1.0000 </r>
       <r>   -2.0283    1.0000 </r>
       <r>   -2.0025    1.0000 </r>
       <r>   -1.9506    1.0000 </r>
       <r>   -1.9190    1.0000 </r>
       <r>   -1.8997    1.0000 </r>
       <r>   -1.8593    1.0000 </r>
       <r>   -1.8162    1.0000 </r>
       <r>   -1.8099    1.0000 </r>
       <r>   -1.7860    1.0000 </r>
       <r>   -1.7463    1.0000 </r>
       <r>   -1.7332    1.0000 </r>
       <r>   -1.7187    1.0000 </r>
       <r>   -1.7038    1.0000 </r>
       <r>   -1.6885    1.0000 </r>
       <r>   -1.6709    1.0000 </r>
       <r>   -1.6534    1.0000 </r>
       <r>   -1.6319    1.0000 </r>
       <r>   -1.6173    1.0000 </r>
       <r>   -1.6024    1.0000 </r>
       <r>   -1.5962    1.0000 </r>
       <r>   -1.5648    1.0000 </r>
       <r>   -1.5555    1.0000 </r>
       <r>   -1.5187    1.0000 </r>
       <r>   -1.5058    1.0000 </r>
       <r>   -1.4881    1.0000 </r>
       <r>   -1.4437    1.0000 </r>
       <r>   -1.4296    1.0000 </r>
       <r>   -1.3940    1.0000 </r>
       <r>   -1.3742    1.0000 </r>
       <r>   -1.3528    1.0000 </r>
       <r>   -1.3196    1.0000 </r>
       <r>   -1.3028    1.0000 </r>
       <r>   -1.2902    1.0000 </r>
       <r>   -1.1974    1.0000 </r>
       <r>   -1.1704    1.0000 </r>
       <r>   -1.1564    1.0000 </r>
       <r>   -1.1526    1.0000 </r>
       <r>   -1.1098    1.0000 </r>
       <r>   -1.0959    1.0000 </r>
       <r>   -1.0874    1.0000 </r>
       <r>   -1.0582    1.0000 </r>
       <r>   -1.0173    1.0000 </r>
       <r>   -0.9791    1.0000 </r>
       <r>   -0.9557    1.0000 </r>
       <r>   -0.9285    1.0000 </r>
       <r>   -0.9107    1.0000 </r>
       <r>   -0.8946    1.0000 </r>
       <r>   -0.8841    1.0000 </r>
       <r>   -0.8718    1.0000 </r>
       <r>   -0.8610    1.0000 </r>
       <r>   -0.8455    1.0000 </r>
       <r>   -0.8208    1.0000 </r>
       <r>   -0.7967    1.0000 </r>
       <r>   -0.7820    1.0000 </r>
       <r>   -0.7558    1.0000 </r>
       <r>   -0.7444    1.0000 </r>
       <r>   -0.7188    1.0000 </r>
       <r>   -0.6792    1.0000 </r>
       <r>   -0.6584    1.0000 </r>
       <r>   -0.6334    1.0000 </r>
       <r>   -0.6198    1.0000 </r>
       <r>   -0.5986    1.0000 </r>
       <r>   -0.5528    1.0000 </r>
       <r>   -0.5136    1.0000 </r>
       <r>   -0.4943    1.0000 </r>
       <r>   -0.4778    1.0000 </r>
       <r>   -0.4537    1.0000 </r>
       <r>   -0.4390    1.0000 </r>
       <r>   -0.4173    1.0000 </r>
       <r>   -0.3863    1.0000 </r>
       <r>   -0.3584    1.0000 </r>
       <r>   -0.3278    1.0000 </r>
       <r>   -0.2986    1.0000 </r>
       <r>   -0.2794    1.0000 </r>
       <r>   -0.2590    1.0000 </r>
       <r>   -0.2292    1.0000 </r>
       <r>   -0.2182    1.0000 </r>
       <r>   -0.1798    1.0000 </r>
       <r>   -0.1487    1.0000 </r>
       <r>   -0.1260    1.0000 </r>
       <r>   -0.0942    1.0000 </r>
       <r>   -0.0686    1.0000 </r>
       <r>   -0.0178    1.0000 </r>
       <r>   -0.0027    1.0000 </r>
       <r>    0.0319    1.0000 </r>
       <r>    0.0456    1.0000 </r>
       <r>    0.0644    1.0000 </r>
       <r>    0.0749    1.0000 </r>
       <r>    0.1022    1.0000 </r>
       <r>    0.1257    1.0000 </r>
       <r>    0.1427    1.0000 </r>
       <r>    0.1706    1.0000 </r>
       <r>    0.1999    1.0000 </r>
       <r>    0.2161    1.0000 </r>
       <r>    0.2523    1.0000 </r>
       <r>    0.2800    1.0000 </r>
       <r>    0.2883    1.0000 </r>
       <r>    0.3038    1.0000 </r>
       <r>    0.3347    1.0001 </r>
       <r>    0.3604    1.0004 </r>
       <r>    0.3790    1.0009 </r>
       <r>    0.3889    1.0014 </r>
       <r>    0.4065    1.0029 </r>
       <r>    0.4126    1.0037 </r>
       <r>    0.4494    1.0126 </r>
       <r>    0.4662    1.0193 </r>
       <r>    0.4841    1.0275 </r>
       <r>    0.4982    1.0331 </r>
       <r>    0.5761    0.9125 </r>
       <r>    0.5848    0.8681 </r>
       <r>    0.5905    0.8347 </r>
       <r>    0.6099    0.7008 </r>
       <r>    0.6334    0.5087 </r>
       <r>    0.6488    0.3799 </r>
       <r>    0.6550    0.3299 </r>
       <r>    0.6695    0.2225 </r>
       <r>    0.6875    0.1137 </r>
       <r>    0.8142   -0.0145 </r>
       <r>    0.8851   -0.0011 </r>
       <r>    0.9113   -0.0003 </r>
       <r>    0.9245   -0.0002 </r>
       <r>    1.2349   -0.0000 </r>
       <r>    1.4023   -0.0000 </r>
       <r>    1.5254   -0.0000 </r>
       <r>    1.5512   -0.0000 </r>
       <r>    1.7099   -0.0000 </r>
       <r>    1.8125   -0.0000 </r>
       <r>    1.9572   -0.0000 </r>
       <r>    2.2195   -0.0000 </r>
       <r>    2.3470   -0.0000 </r>
       <r>    2.5088   -0.0000 </r>
       <r>    2.6994    0.0000 </r>
       <r>    3.0801    0.0000 </r>
       <r>    3.2882    0.0000 </r>
       <r>    3.4278    0.0000 </r>
       <r>    3.5539    0.0000 </r>
       <r>    3.7810    0.0000 </r>
       <r>    3.9627    0.0000 </r>
       <r>    4.1312    0.0000 </r>
       <r>    4.3638    0.0000 </r>
       <r>    4.5003    0.0000 </r>
       <r>    4.6950    0.0000 </r>
       <r>    5.0047    0.0000 </r>
       <r>    5.1301    0.0000 </r>
       <r>    5.2599    0.0000 </r>
       <r>    5.6238    0.0000 </r>
       <r>    5.7535    0.0000 </r>
       <r>    5.8081    0.0000 </r>
       <r>    5.9364    0.0000 </r>
      </set>
     </set>
    </set>
   </array>
  </eigenvalues>
  <separator name="orbital magnetization" >
   <v name="MAGDIPOLOUT">      0.00000000      0.00000000      0.00000000</v>
  </separator>
  <dos>
   <i name="efermi">      0.63443226 </i>
   <total>
    <array>
     <dimension dim="1">gridpoints</dimension>
     <dimension dim="2">spin</dimension>
     <field>energy</field>
     <field>total</field>
     <field>integrated</field>
     <set>
      <set comment="spin 1">
       <r>   -14.1233     0.0000     0.0000 </r>
       <r>   -14.0531     0.0000     0.0000 </r>
       <r>   -13.9829    -0.0000    -0.0000 </r>
       <r>   -13.9127    -0.0000    -0.0000 </r>
       <r>   -13.8425    -0.0000    -0.0000 </r>
       <r>   -13.7723    -0.0000    -0.0000 </r>
       <r>   -13.7021    -0.0000    -0.0000 </r>
       <r>   -13.6319    -0.0000    -0.0000 </r>
       <r>   -13.5617    -0.0000    -0.0000 </r>
       <r>   -13.4915    -0.0000    -0.0000 </r>
       <r>   -13.4213    -0.0029    -0.0002 </r>
       <r>   -13.3511    -0.0809    -0.0059 </r>
       <r>   -13.2809    -0.6047    -0.0483 </r>
       <r>   -13.2107     0.4989    -0.0133 </r>
       <r>   -13.1405    10.3517     0.7134 </r>
       <r>   -13.0703    15.0818     1.7721 </r>
       <r>   -13.0001     4.2567     2.0709 </r>
       <r>   -12.9299    -0.7296     2.0197 </r>
       <r>   -12.8597    -0.2628     2.0012 </r>
       <r>   -12.7895    -0.0172     2.0000 </r>
       <r>   -12.7193    -0.0004     2.0000 </r>
       <r>   -12.6491    -0.0000     2.0000 </r>
       <r>   -12.5789    -0.0000     2.0000 </r>
       <r>   -12.5087    -0.0000     2.0000 </r>
       <r>   -12.4385     0.0000     2.0000 </r>
       <r>   -12.3683     0.0000     2.0000 </r>
       <r>   -12.2981     0.0000     2.0000 </r>
       <r>   -12.2279     0.0000     2.0000 </r>
       <r>   -12.1577     0.0000     2.0000 </r>
       <r>   -12.0875     0.0000     2.0000 </r>
       <r>   -12.0173     0.0000     2.0000 </r>
       <r>   -11.9471     0.0000     2.0000 </r>
       <r>   -11.8769     0.0000     2.0000 </r>
       <r>   -11.8067     0.0000     2.0000 </r>
       <r>   -11.7365     0.0000     2.0000 </r>
       <r>   -11.6663     0.0000     2.0000 </r>
       <r>   -11.5961     0.0000     2.0000 </r>
       <r>   -11.5259     0.0000     2.0000 </r>
       <r>   -11.4557     0.0000     2.0000 </r>
       <r>   -11.3855     0.0000     2.0000 </r>
       <r>   -11.3153     0.0000     2.0000 </r>
       <r>   -11.2451     0.0000     2.0000 </r>
       <r>   -11.1749     0.0000     2.0000 </r>
       <r>   -11.1047     0.0000     2.0000 </r>
       <r>   -11.0345     0.0000     2.0000 </r>
       <r>   -10.9643     0.0000     2.0000 </r>
       <r>   -10.8941     0.0000     2.0000 </r>
       <r>   -10.8239     0.0000     2.0000 </r>
       <r>   -10.7538     0.0000     2.0000 </r>
       <r>   -10.6836     0.0000     2.0000 </r>
       <r>   -10.6134     0.0000     2.0000 </r>
       <r>   -10.5432     0.0000     2.0000 </r>
       <r>   -10.4730     0.0000     2.0000 </r>
       <r>   -10.4028     0.0000     2.0000 </r>
       <r>   -10.3326     0.0000     2.0000 </r>
       <r>   -10.2624     0.0000     2.0000 </r>
       <r>   -10.1922     0.0000     2.0000 </r>
       <r>   -10.1220     0.0000     2.0000 </r>
       <r>   -10.0518     0.0000     2.0000 </r>
       <r>    -9.9816     0.0000     2.0000 </r>
       <r>    -9.9114     0.0000     2.0000 </r>
       <r>    -9.8412     0.0000     2.0000 </r>
       <r>    -9.7710     0.0000     2.0000 </r>
       <r>    -9.7008     0.0000     2.0000 </r>
       <r>    -9.6306     0.0000     2.0000 </r>
       <r>    -9.5604     0.0000     2.0000 </r>
       <r>    -9.4902     0.0000     2.0000 </r>
       <r>    -9.4200     0.0000     2.0000 </r>
       <r>    -9.3498     0.0000     2.0000 </r>
       <r>    -9.2796     0.0000     2.0000 </r>
       <r>    -9.2094     0.0000     2.0000 </r>
       <r>    -9.1392     0.0000     2.0000 </r>
       <r>    -9.0690     0.0000     2.0000 </r>
       <r>    -8.9988     0.0000     2.0000 </r>
       <r>    -8.9286     0.0000     2.0000 </r>
       <r>    -8.8584     0.0000     2.0000 </r>
       <r>    -8.7882     0.0000     2.0000 </r>
       <r>    -8.7180     0.0000     2.0000 </r>
       <r>    -8.6478     0.0000     2.0000 </r>
       <r>    -8.5776     0.0000     2.0000 </r>
       <r>    -8.5074     0.0000     2.0000 </r>
       <r>    -8.4372     0.0000     2.0000 </r>
       <r>    -8.3670     0.0000     2.0000 </r>
       <r>    -8.2968     0.0000     2.0000 </r>
       <r>    -8.2266     0.0000     2.0000 </r>
       <r>    -8.1564     0.0000     2.0000 </r>
       <r>    -8.0862     0.0000     2.0000 </r>
       <r>    -8.0160     0.0000     2.0000 </r>
       <r>    -7.9458     0.0000     2.0000 </r>
       <r>    -7.8756     0.0000     2.0000 </r>
       <r>    -7.8054     0.0000     2.0000 </r>
       <r>    -7.7352     0.0000     2.0000 </r>
       <r>    -7.6650     0.0000     2.0000 </r>
       <r>    -7.5948     0.0000     2.0000 </r>
       <r>    -7.5246     0.0000     2.0000 </r>
       <r>    -7.4544     0.0000     2.0000 </r>
       <r>    -7.3842     0.0000     2.0000 </r>
       <r>    -7.3140     0.0000     2.0000 </r>
       <r>    -7.2438     0.0000     2.0000 </r>
       <r>    -7.1736     0.0000     2.0000 </r>
       <r>    -7.1034     0.0000     2.0000 </r>
       <r>    -7.0332     0.0000     2.0000 </r>
       <r>    -6.9630     0.0000     2.0000 </r>
       <r>    -6.8928     0.0000     2.0000 </r>
       <r>    -6.8226     0.0000     2.0000 </r>
       <r>    -6.7524     0.0000     2.0000 </r>
       <r>    -6.6822     0.0000     2.0000 </r>
       <r>    -6.6120     0.0000     2.0000 </r>
       <r>    -6.5418     0.0000     2.0000 </r>
       <r>    -6.4716    -0.0000     2.0000 </r>
       <r>    -6.4014    -0.0000     2.0000 </r>
       <r>    -6.3312    -0.0000     2.0000 </r>
       <r>    -6.2610    -0.0000     2.0000 </r>
       <r>    -6.1908    -0.0000     2.0000 </r>
       <r>    -6.1206    -0.0000     2.0000 </r>
       <r>    -6.0504    -0.0000     2.0000 </r>
       <r>    -5.9802    -0.0000     2.0000 </r>
       <r>    -5.9100    -0.0016     1.9999 </r>
       <r>    -5.8398    -0.0515     1.9963 </r>
       <r>    -5.7696    -0.4853     1.9622 </r>
       <r>    -5.6994    -0.1257     1.9534 </r>
       <r>    -5.6292     8.2762     2.5344 </r>
       <r>    -5.5590    15.6684     3.6343 </r>
       <r>    -5.4888     6.1033     4.0627 </r>
       <r>    -5.4186    -0.9009     3.9995 </r>
       <r>    -5.3484    -0.7162     3.9492 </r>
       <r>    -5.2782     5.9664     4.3680 </r>
       <r>    -5.2080    14.4213     5.3804 </r>
       <r>    -5.1378     8.5174     5.9783 </r>
       <r>    -5.0676     7.4329     6.5001 </r>
       <r>    -4.9974    14.9245     7.5478 </r>
       <r>    -4.9272    16.4433     8.7021 </r>
       <r>    -4.8570    14.2714     9.7039 </r>
       <r>    -4.7868     8.0540    10.2693 </r>
       <r>    -4.7166    14.0584    11.2562 </r>
       <r>    -4.6464    10.5216    11.9948 </r>
       <r>    -4.5762     0.0866    12.0009 </r>
       <r>    -4.5060     0.1220    12.0094 </r>
       <r>    -4.4358    10.4124    12.7404 </r>
       <r>    -4.3656    13.5287    13.6901 </r>
       <r>    -4.2955     6.1059    14.1187 </r>
       <r>    -4.2253    19.9219    15.5172 </r>
       <r>    -4.1551    27.5771    17.4531 </r>
       <r>    -4.0849     8.3696    18.0406 </r>
       <r>    -4.0147     3.8172    18.3086 </r>
       <r>    -3.9445    11.9895    19.1502 </r>
       <r>    -3.8743    13.6523    20.1086 </r>
       <r>    -3.8041    50.8425    23.6777 </r>
       <r>    -3.7339    85.2154    29.6597 </r>
       <r>    -3.6637    61.0443    33.9450 </r>
       <r>    -3.5935    61.7444    38.2794 </r>
       <r>    -3.5233    73.9342    43.4695 </r>
       <r>    -3.4531    40.1546    46.2883 </r>
       <r>    -3.3829    45.2903    49.4676 </r>
       <r>    -3.3127    68.5986    54.2831 </r>
       <r>    -3.2425    82.3054    60.0609 </r>
       <r>    -3.1723    94.2341    66.6760 </r>
       <r>    -3.1021    68.9521    71.5164 </r>
       <r>    -3.0319    45.6839    74.7234 </r>
       <r>    -2.9617    60.7074    78.9849 </r>
       <r>    -2.8915    86.4503    85.0537 </r>
       <r>    -2.8213    77.1980    90.4729 </r>
       <r>    -2.7511    45.2619    93.6502 </r>
       <r>    -2.6809    51.7188    97.2808 </r>
       <r>    -2.6107    79.6399   102.8715 </r>
       <r>    -2.5405    80.6494   108.5330 </r>
       <r>    -2.4703    75.6784   113.8455 </r>
       <r>    -2.4001    68.9325   118.6845 </r>
       <r>    -2.3299    63.2799   123.1267 </r>
       <r>    -2.2597    63.8161   127.6065 </r>
       <r>    -2.1895    62.6912   132.0073 </r>
       <r>    -2.1193    67.4694   136.7436 </r>
       <r>    -2.0491    69.8783   141.6490 </r>
       <r>    -1.9789    60.2890   145.8812 </r>
       <r>    -1.9087    56.8919   149.8750 </r>
       <r>    -1.8385    64.4371   154.3984 </r>
       <r>    -1.7683    79.5394   159.9820 </r>
       <r>    -1.6981   102.7529   167.1951 </r>
       <r>    -1.6279   124.5827   175.9407 </r>
       <r>    -1.5577   116.2793   184.1033 </r>
       <r>    -1.4875    90.8658   190.4820 </r>
       <r>    -1.4173    75.5373   195.7847 </r>
       <r>    -1.3471    79.9574   201.3976 </r>
       <r>    -1.2769    71.3318   206.4050 </r>
       <r>    -1.2067    49.6842   209.8928 </r>
       <r>    -1.1365    71.2375   214.8936 </r>
       <r>    -1.0663    88.7149   221.1213 </r>
       <r>    -0.9961    74.6154   226.3592 </r>
       <r>    -0.9259    87.4577   232.4986 </r>
       <r>    -0.8557   116.5278   240.6787 </r>
       <r>    -0.7855   109.5043   248.3658 </r>
       <r>    -0.7153    89.9484   254.6801 </r>
       <r>    -0.6451    81.1983   260.3801 </r>
       <r>    -0.5749    73.5178   265.5410 </r>
       <r>    -0.5047    73.1131   270.6735 </r>
       <r>    -0.4345    88.9382   276.9168 </r>
       <r>    -0.3643    84.5718   282.8537 </r>
       <r>    -0.2941    77.2720   288.2781 </r>
       <r>    -0.2239    78.8787   293.8153 </r>
       <r>    -0.1537    72.4574   298.9017 </r>
       <r>    -0.0835    62.0038   303.2543 </r>
       <r>    -0.0133    64.9012   307.8103 </r>
       <r>     0.0569    91.4093   314.2271 </r>
       <r>     0.1271    99.3630   321.2023 </r>
       <r>     0.1973    82.6688   327.0056 </r>
       <r>     0.2675    82.2766   332.7813 </r>
       <r>     0.3377    96.7633   339.5740 </r>
       <r>     0.4079   107.4897   347.1197 </r>
       <r>     0.4781    96.5468   353.8971 </r>
       <r>     0.5483    74.3873   359.1190 </r>
       <r>     0.6185    99.8628   366.1293 </r>
       <r>     0.6887   104.5532   373.4688 </r>
       <r>     0.7589    43.3154   376.5095 </r>
       <r>     0.8291    17.1081   377.7105 </r>
       <r>     0.8993    36.2579   380.2558 </r>
       <r>     0.9695    41.3250   383.1567 </r>
       <r>     1.0397    13.5932   384.1110 </r>
       <r>     1.1099    -0.9338   384.0454 </r>
       <r>     1.1801     6.6741   384.5139 </r>
       <r>     1.2503    13.9578   385.4937 </r>
       <r>     1.3205    10.5440   386.2339 </r>
       <r>     1.3907    12.1648   387.0879 </r>
       <r>     1.4609    13.4825   388.0343 </r>
       <r>     1.5311    24.6421   389.7642 </r>
       <r>     1.6013    26.7263   391.6403 </r>
       <r>     1.6715    13.3106   392.5747 </r>
       <r>     1.7417    14.8826   393.6195 </r>
       <r>     1.8119    12.7409   394.5139 </r>
       <r>     1.8821    12.4890   395.3906 </r>
       <r>     1.9523    18.3084   396.6758 </r>
       <r>     2.0225    15.6721   397.7760 </r>
       <r>     2.0927     3.5510   398.0253 </r>
       <r>     2.1629     5.5784   398.4169 </r>
       <r>     2.2330    14.2730   399.4188 </r>
       <r>     2.3032    14.1801   400.4142 </r>
       <r>     2.3734    15.0300   401.4693 </r>
       <r>     2.4436     9.4141   402.1302 </r>
       <r>     2.5138    12.2709   402.9916 </r>
       <r>     2.5840    13.2887   403.9244 </r>
       <r>     2.6542    11.2739   404.7159 </r>
       <r>     2.7244    13.6611   405.6749 </r>
       <r>     2.7946     5.3570   406.0509 </r>
       <r>     2.8648    -0.5821   406.0101 </r>
       <r>     2.9350    -1.0333   405.9375 </r>
       <r>     3.0052     3.2591   406.1663 </r>
       <r>     3.0754    13.8368   407.1376 </r>
       <r>     3.1456    10.9735   407.9080 </r>
       <r>     3.2158     2.0904   408.0547 </r>
       <r>     3.2860     9.3027   408.7077 </r>
       <r>     3.3562    15.9953   409.8306 </r>
       <r>     3.4264    16.0643   410.9583 </r>
       <r>     3.4966    14.8900   412.0036 </r>
       <r>     3.5668    14.4518   413.0181 </r>
       <r>     3.6370    11.6571   413.8364 </r>
       <r>     3.7072     3.6185   414.0904 </r>
       <r>     3.7774    10.9193   414.8569 </r>
       <r>     3.8476    13.3931   415.7971 </r>
       <r>     3.9178     5.6371   416.1928 </r>
       <r>     3.9880    10.9438   416.9611 </r>
       <r>     4.0582    15.4954   418.0488 </r>
       <r>     4.1284    16.6686   419.2189 </r>
       <r>     4.1986    10.1837   419.9338 </r>
       <r>     4.2688     1.4780   420.0376 </r>
       <r>     4.3390     8.9771   420.6678 </r>
       <r>     4.4092    15.4028   421.7490 </r>
       <r>     4.4794    14.6091   422.7746 </r>
       <r>     4.5496    13.7461   423.7395 </r>
       <r>     4.6198     4.7894   424.0757 </r>
       <r>     4.6900     9.8581   424.7678 </r>
       <r>     4.7602    14.0177   425.7518 </r>
       <r>     4.8304     5.4992   426.1378 </r>
       <r>     4.9006     6.3565   426.5840 </r>
       <r>     4.9708     8.6152   427.1888 </r>
       <r>     5.0410     8.2291   427.7665 </r>
       <r>     5.1112    11.0292   428.5407 </r>
       <r>     5.1814    15.6828   429.6416 </r>
       <r>     5.2516    11.6199   430.4573 </r>
       <r>     5.3218     9.0879   431.0953 </r>
       <r>     5.3920     8.7533   431.7098 </r>
       <r>     5.4622     3.7341   431.9719 </r>
       <r>     5.5324     0.6025   432.0142 </r>
       <r>     5.6026     9.7135   432.6961 </r>
       <r>     5.6728    14.3969   433.7067 </r>
       <r>     5.7430    14.4532   434.7213 </r>
       <r>     5.8132    25.8407   436.5353 </r>
       <r>     5.8834    24.1774   438.2325 </r>
       <r>     5.9536    17.7585   439.4792 </r>
       <r>     6.0238     8.1189   440.0491 </r>
       <r>     6.0940    -0.0847   440.0432 </r>
       <r>     6.1642    -0.5484   440.0047 </r>
       <r>     6.2344    -0.0642   440.0002 </r>
       <r>     6.3046    -0.0022   440.0000 </r>
       <r>     6.3748    -0.0000   440.0000 </r>
       <r>     6.4450    -0.0000   440.0000 </r>
       <r>     6.5152    -0.0000   440.0000 </r>
       <r>     6.5854    -0.0000   440.0000 </r>
       <r>     6.6556     0.0000   440.0000 </r>
       <r>     6.7258     0.0000   440.0000 </r>
       <r>     6.7960     0.0000   440.0000 </r>
       <r>     6.8662     0.0000   440.0000 </r>
       <r>     6.9364     0.0000   440.0000 </r>
      </set>
     </set>
    </array>
   </total>
  </dos>
 </calculation>
 <structure name="finalpos" >
  <crystal>
   <varray name="basis" >
    <v>       8.35800215       0.00000000       0.00000000 </v>
    <v>       0.00000000       8.35800215       0.00000000 </v>
    <v>       0.00000000       0.00000000      19.91000000 </v>
   </varray>
   <i name="volume">   1390.83694200 </i>
   <varray name="rec_basis" >
    <v>       0.11964582       0.00000000       0.00000000 </v>
    <v>       0.00000000       0.11964582       0.00000000 </v>
    <v>       0.00000000       0.00000000       0.05022602 </v>
   </varray>
  </crystal>
  <varray name="positions" >
   <v>       0.16666667       0.16666667       0.00000000 </v>
   <v>       0.50000000       0.16666667       0.00000000 </v>
   <v>       0.83333333       0.16666667       0.00000000 </v>
   <v>       0.16666667       0.50000000       0.00000000 </v>
   <v>       0.50000000       0.50000000       0.00000000 </v>
   <v>       0.83333333       0.50000000       0.00000000 </v>
   <v>       0.16666667       0.83333333       0.00000000 </v>
   <v>       0.50000000       0.83333333       0.00000000 </v>
   <v>       0.83333333       0.83333333       0.00000000 </v>
   <v>       0.00000000       0.00000000       0.09894525 </v>
   <v>       0.33333333       0.00000000       0.09894525 </v>
   <v>       0.66666667       0.00000000       0.09894525 </v>
   <v>       0.00000000       0.33333333       0.09894525 </v>
   <v>       0.33333333       0.33333333       0.09894525 </v>
   <v>       0.66666667       0.33333333       0.09894525 </v>
   <v>       0.00000000       0.66666667       0.09894525 </v>
   <v>       0.33333333       0.66666667       0.09894525 </v>
   <v>       0.66666667       0.66666667       0.09894525 </v>
   <v>       0.16643790       0.16673390       0.19918736 </v>
   <v>       0.49816454       0.16779938       0.19903144 </v>
   <v>       0.83283551       0.16593924       0.19932721 </v>
   <v>       0.17380588       0.49990019       0.19821371 </v>
   <v>       0.50181913       0.50268367       0.20029396 </v>
   <v>       0.83728012       0.49931361       0.19862365 </v>
   <v>       0.17174893       0.83230322       0.19923721 </v>
   <v>       0.50045116       0.83032345       0.20160570 </v>
   <v>       0.83510487       0.82988064       0.19988231 </v>
   <v>       0.99682074       0.99601555       0.29748546 </v>
   <v>       0.33161782       0.00227981       0.29861557 </v>
   <v>       0.66545887       0.99867545       0.29805905 </v>
   <v>       0.00473286       0.32904421       0.30030926 </v>
   <v>       0.33940620       0.33013674       0.30426744 </v>
   <v>       0.67078361       0.33090148       0.29863635 </v>
   <v>       0.01325126       0.66679823       0.30004018 </v>
   <v>       0.34936754       0.67006868       0.31240951 </v>
   <v>       0.67546842       0.66213973       0.30193076 </v>
   <v>       0.51843794       0.25373461       0.34186080 </v>
   <v>       0.52760772       0.61556919       0.35722355 </v>
   <v>       0.17023324       0.49706218       0.36276412 </v>
  </varray>
  <varray name="selective"  type="logical" >
   <v type="logical" >  F  F  F </v>
   <v type="logical" >  F  F  F </v>
   <v type="logical" >  F  F  F </v>
   <v type="logical" >  F  F  F </v>
   <v type="logical" >  F  F  F </v>
   <v type="logical" >  F  F  F </v>
   <v type="logical" >  F  F  F </v>
   <v type="logical" >  F  F  F </v>
   <v type="logical" >  F  F  F </v>
   <v type="logical" >  F  F  F </v>
   <v type="logical" >  F  F  F </v>
   <v type="logical" >  F  F  F </v>
   <v type="logical" >  F  F  F </v>
   <v type="logical" >  F  F  F </v>
   <v type="logical" >  F  F  F </v>
   <v type="logical" >  F  F  F </v>
   <v type="logical" >  F  F  F </v>
   <v type="logical" >  F  F  F </v>
   <v type="logical" >  T  T  T </v>
   <v type="logical" >  T  T  T </v>
   <v type="logical" >  T  T  T </v>
   <v type="logical" >  T  T  T </v>
   <v type="logical" >  T  T  T </v>
   <v type="logical" >  T  T  T </v>
   <v type="logical" >  T  T  T </v>
   <v type="logical" >  T  T  T </v>
   <v type="logical" >  T  T  T </v>
   <v type="logical" >  T  T  T </v>
   <v type="logical" >  T  T  T </v>
   <v type="logical" >  T  T  T </v>
   <v type="logical" >  T  T  T </v>
   <v type="logical" >  T  T  T </v>
   <v type="logical" >  T  T  T </v>
   <v type="logical" >  T  T  T </v>
   <v type="logical" >  T  T  T </v>
   <v type="logical" >  T  T  T </v>
   <v type="logical" >  T  T  T </v>
   <v type="logical" >  T  T  T </v>
   <v type="logical" >  T  T  T </v>
  </varray>
  <nose>
   <v>      -3.00000000       0.00000000       0.00010000       0.00010000 </v>
  </nose>
 </structure>
</modeling>
