unknown system                          
           1
     8.358002    0.000000    0.000000
     0.000000    8.358002    0.000000
     0.000000    0.000000   19.910000
   Pd   H    S 
    36     2     1
Direct configuration=     1
   0.16666667  0.16666667  0.00000000
   0.50000000  0.16666667  0.00000000
   0.83333333  0.16666667  0.00000000
   0.16666667  0.50000000  0.00000000
   0.50000000  0.50000000  0.00000000
   0.83333333  0.50000000  0.00000000
   0.16666667  0.83333333  0.00000000
   0.50000000  0.83333333  0.00000000
   0.83333333  0.83333333  0.00000000
   0.00000000  0.00000000  0.09894525
   0.33333333  0.00000000  0.09894525
   0.66666667  0.00000000  0.09894525
   0.00000000  0.33333333  0.09894525
   0.33333333  0.33333333  0.09894525
   0.66666667  0.33333333  0.09894525
   0.00000000  0.66666667  0.09894525
   0.33333333  0.66666667  0.09894525
   0.66666667  0.66666667  0.09894525
   0.16643790  0.16673390  0.19918736
   0.49816454  0.16779938  0.19903144
   0.83283551  0.16593924  0.19932721
   0.17380588  0.49990019  0.19821371
   0.50181913  0.50268367  0.20029396
   0.83728012  0.49931361  0.19862365
   0.17174893  0.83230322  0.19923721
   0.50045116  0.83032345  0.20160570
   0.83510487  0.82988064  0.19988231
   0.99682074  0.99601555  0.29748546
   0.33161782  0.00227981  0.29861557
   0.66545887  0.99867545  0.29805905
   0.00473286  0.32904421  0.30030926
   0.33940620  0.33013674  0.30426744
   0.67078361  0.33090148  0.29863635
   0.01325126  0.66679823  0.30004018
   0.34936754  0.67006868  0.31240951
   0.67546842  0.66213973  0.30193076
   0.51843794  0.25373461  0.34186080
   0.52760772  0.61556919  0.35722355
   0.17023324  0.49706218  0.36276412
